+ 0.1 0 9 cbr 512 ------- 1 0.0 1.0 0 0
- 0.1 0 9 cbr 512 ------- 1 0.0 1.0 0 0
+ 0.1 2 9 cbr 512 ------- 1 2.0 17.0 0 1
- 0.1 2 9 cbr 512 ------- 1 2.0 17.0 0 1
+ 0.1 3 17 cbr 512 ------- 1 3.0 1.1 0 2
- 0.1 3 17 cbr 512 ------- 1 3.0 1.1 0 2
+ 0.1 4 9 cbr 512 ------- 1 4.0 9.0 0 3
- 0.1 4 9 cbr 512 ------- 1 4.0 9.0 0 3
+ 0.1 5 1 cbr 512 ------- 1 5.0 17.1 0 4
- 0.1 5 1 cbr 512 ------- 1 5.0 17.1 0 4
+ 0.1 6 1 cbr 512 ------- 1 6.0 1.2 0 5
- 0.1 6 1 cbr 512 ------- 1 6.0 1.2 0 5
+ 0.1 7 17 cbr 512 ------- 1 7.0 9.1 0 6
- 0.1 7 17 cbr 512 ------- 1 7.0 9.1 0 6
+ 0.1 8 1 cbr 512 ------- 1 8.0 17.2 0 7
- 0.1 8 1 cbr 512 ------- 1 8.0 17.2 0 7
+ 0.1 10 9 cbr 512 ------- 1 10.0 9.2 0 8
- 0.1 10 9 cbr 512 ------- 1 10.0 9.2 0 8
+ 0.1 11 1 cbr 512 ------- 1 11.0 17.3 0 9
- 0.1 11 1 cbr 512 ------- 1 11.0 17.3 0 9
+ 0.1 12 9 cbr 512 ------- 1 12.0 1.3 0 10
- 0.1 12 9 cbr 512 ------- 1 12.0 1.3 0 10
+ 0.1 13 9 cbr 512 ------- 1 13.0 9.3 0 11
- 0.1 13 9 cbr 512 ------- 1 13.0 9.3 0 11
+ 0.1 14 17 cbr 512 ------- 1 14.0 17.4 0 12
- 0.1 14 17 cbr 512 ------- 1 14.0 17.4 0 12
+ 0.1 15 17 cbr 512 ------- 1 15.0 1.4 0 13
- 0.1 15 17 cbr 512 ------- 1 15.0 1.4 0 13
+ 0.1 16 1 cbr 512 ------- 1 16.0 9.4 0 14
- 0.1 16 1 cbr 512 ------- 1 16.0 9.4 0 14
+ 0.1 18 9 cbr 512 ------- 1 18.0 1.5 0 15
- 0.1 18 9 cbr 512 ------- 1 18.0 1.5 0 15
+ 0.1 19 17 cbr 512 ------- 1 19.0 9.5 0 16
- 0.1 19 17 cbr 512 ------- 1 19.0 9.5 0 16
+ 0.108 0 9 cbr 512 ------- 1 0.0 1.0 1 17
- 0.108 0 9 cbr 512 ------- 1 0.0 1.0 1 17
+ 0.108 2 9 cbr 512 ------- 1 2.0 17.0 1 18
- 0.108 2 9 cbr 512 ------- 1 2.0 17.0 1 18
+ 0.108 3 17 cbr 512 ------- 1 3.0 1.1 1 19
- 0.108 3 17 cbr 512 ------- 1 3.0 1.1 1 19
+ 0.108 4 9 cbr 512 ------- 1 4.0 9.0 1 20
- 0.108 4 9 cbr 512 ------- 1 4.0 9.0 1 20
+ 0.108 5 1 cbr 512 ------- 1 5.0 17.1 1 21
- 0.108 5 1 cbr 512 ------- 1 5.0 17.1 1 21
+ 0.108 6 1 cbr 512 ------- 1 6.0 1.2 1 22
- 0.108 6 1 cbr 512 ------- 1 6.0 1.2 1 22
+ 0.108 7 17 cbr 512 ------- 1 7.0 9.1 1 23
- 0.108 7 17 cbr 512 ------- 1 7.0 9.1 1 23
+ 0.108 8 1 cbr 512 ------- 1 8.0 17.2 1 24
- 0.108 8 1 cbr 512 ------- 1 8.0 17.2 1 24
+ 0.108 10 9 cbr 512 ------- 1 10.0 9.2 1 25
- 0.108 10 9 cbr 512 ------- 1 10.0 9.2 1 25
+ 0.108 11 1 cbr 512 ------- 1 11.0 17.3 1 26
- 0.108 11 1 cbr 512 ------- 1 11.0 17.3 1 26
+ 0.108 12 9 cbr 512 ------- 1 12.0 1.3 1 27
- 0.108 12 9 cbr 512 ------- 1 12.0 1.3 1 27
+ 0.108 13 9 cbr 512 ------- 1 13.0 9.3 1 28
- 0.108 13 9 cbr 512 ------- 1 13.0 9.3 1 28
+ 0.108 14 17 cbr 512 ------- 1 14.0 17.4 1 29
- 0.108 14 17 cbr 512 ------- 1 14.0 17.4 1 29
+ 0.108 15 17 cbr 512 ------- 1 15.0 1.4 1 30
- 0.108 15 17 cbr 512 ------- 1 15.0 1.4 1 30
+ 0.108 16 1 cbr 512 ------- 1 16.0 9.4 1 31
- 0.108 16 1 cbr 512 ------- 1 16.0 9.4 1 31
+ 0.108 18 9 cbr 512 ------- 1 18.0 1.5 1 32
- 0.108 18 9 cbr 512 ------- 1 18.0 1.5 1 32
+ 0.108 19 17 cbr 512 ------- 1 19.0 9.5 1 33
- 0.108 19 17 cbr 512 ------- 1 19.0 9.5 1 33
r 0.114096 0 9 cbr 512 ------- 1 0.0 1.0 0 0
+ 0.114096 9 20 cbr 512 ------- 1 0.0 1.0 0 0
- 0.114096 9 20 cbr 512 ------- 1 0.0 1.0 0 0
r 0.114096 2 9 cbr 512 ------- 1 2.0 17.0 0 1
+ 0.114096 9 20 cbr 512 ------- 1 2.0 17.0 0 1
r 0.114096 3 17 cbr 512 ------- 1 3.0 1.1 0 2
+ 0.114096 17 20 cbr 512 ------- 1 3.0 1.1 0 2
- 0.114096 17 20 cbr 512 ------- 1 3.0 1.1 0 2
r 0.114096 4 9 cbr 512 ------- 1 4.0 9.0 0 3
r 0.114096 5 1 cbr 512 ------- 1 5.0 17.1 0 4
+ 0.114096 1 20 cbr 512 ------- 1 5.0 17.1 0 4
- 0.114096 1 20 cbr 512 ------- 1 5.0 17.1 0 4
r 0.114096 6 1 cbr 512 ------- 1 6.0 1.2 0 5
r 0.114096 7 17 cbr 512 ------- 1 7.0 9.1 0 6
+ 0.114096 17 20 cbr 512 ------- 1 7.0 9.1 0 6
r 0.114096 8 1 cbr 512 ------- 1 8.0 17.2 0 7
+ 0.114096 1 20 cbr 512 ------- 1 8.0 17.2 0 7
r 0.114096 10 9 cbr 512 ------- 1 10.0 9.2 0 8
r 0.114096 11 1 cbr 512 ------- 1 11.0 17.3 0 9
+ 0.114096 1 20 cbr 512 ------- 1 11.0 17.3 0 9
r 0.114096 12 9 cbr 512 ------- 1 12.0 1.3 0 10
+ 0.114096 9 20 cbr 512 ------- 1 12.0 1.3 0 10
r 0.114096 13 9 cbr 512 ------- 1 13.0 9.3 0 11
r 0.114096 14 17 cbr 512 ------- 1 14.0 17.4 0 12
r 0.114096 15 17 cbr 512 ------- 1 15.0 1.4 0 13
+ 0.114096 17 20 cbr 512 ------- 1 15.0 1.4 0 13
r 0.114096 16 1 cbr 512 ------- 1 16.0 9.4 0 14
+ 0.114096 1 20 cbr 512 ------- 1 16.0 9.4 0 14
r 0.114096 18 9 cbr 512 ------- 1 18.0 1.5 0 15
+ 0.114096 9 20 cbr 512 ------- 1 18.0 1.5 0 15
r 0.114096 19 17 cbr 512 ------- 1 19.0 9.5 0 16
+ 0.114096 17 20 cbr 512 ------- 1 19.0 9.5 0 16
+ 0.116 0 9 cbr 512 ------- 1 0.0 1.0 2 34
- 0.116 0 9 cbr 512 ------- 1 0.0 1.0 2 34
+ 0.116 2 9 cbr 512 ------- 1 2.0 17.0 2 35
- 0.116 2 9 cbr 512 ------- 1 2.0 17.0 2 35
+ 0.116 3 17 cbr 512 ------- 1 3.0 1.1 2 36
- 0.116 3 17 cbr 512 ------- 1 3.0 1.1 2 36
+ 0.116 4 9 cbr 512 ------- 1 4.0 9.0 2 37
- 0.116 4 9 cbr 512 ------- 1 4.0 9.0 2 37
+ 0.116 5 1 cbr 512 ------- 1 5.0 17.1 2 38
- 0.116 5 1 cbr 512 ------- 1 5.0 17.1 2 38
+ 0.116 6 1 cbr 512 ------- 1 6.0 1.2 2 39
- 0.116 6 1 cbr 512 ------- 1 6.0 1.2 2 39
+ 0.116 7 17 cbr 512 ------- 1 7.0 9.1 2 40
- 0.116 7 17 cbr 512 ------- 1 7.0 9.1 2 40
+ 0.116 8 1 cbr 512 ------- 1 8.0 17.2 2 41
- 0.116 8 1 cbr 512 ------- 1 8.0 17.2 2 41
+ 0.116 10 9 cbr 512 ------- 1 10.0 9.2 2 42
- 0.116 10 9 cbr 512 ------- 1 10.0 9.2 2 42
+ 0.116 11 1 cbr 512 ------- 1 11.0 17.3 2 43
- 0.116 11 1 cbr 512 ------- 1 11.0 17.3 2 43
+ 0.116 12 9 cbr 512 ------- 1 12.0 1.3 2 44
- 0.116 12 9 cbr 512 ------- 1 12.0 1.3 2 44
+ 0.116 13 9 cbr 512 ------- 1 13.0 9.3 2 45
- 0.116 13 9 cbr 512 ------- 1 13.0 9.3 2 45
+ 0.116 14 17 cbr 512 ------- 1 14.0 17.4 2 46
- 0.116 14 17 cbr 512 ------- 1 14.0 17.4 2 46
+ 0.116 15 17 cbr 512 ------- 1 15.0 1.4 2 47
- 0.116 15 17 cbr 512 ------- 1 15.0 1.4 2 47
+ 0.116 16 1 cbr 512 ------- 1 16.0 9.4 2 48
- 0.116 16 1 cbr 512 ------- 1 16.0 9.4 2 48
+ 0.116 18 9 cbr 512 ------- 1 18.0 1.5 2 49
- 0.116 18 9 cbr 512 ------- 1 18.0 1.5 2 49
+ 0.116 19 17 cbr 512 ------- 1 19.0 9.5 2 50
- 0.116 19 17 cbr 512 ------- 1 19.0 9.5 2 50
- 0.116144 9 20 cbr 512 ------- 1 2.0 17.0 0 1
- 0.116144 17 20 cbr 512 ------- 1 7.0 9.1 0 6
- 0.116144 1 20 cbr 512 ------- 1 8.0 17.2 0 7
- 0.118192 9 20 cbr 512 ------- 1 12.0 1.3 0 10
- 0.118192 17 20 cbr 512 ------- 1 15.0 1.4 0 13
- 0.118192 1 20 cbr 512 ------- 1 11.0 17.3 0 9
- 0.12024 9 20 cbr 512 ------- 1 18.0 1.5 0 15
- 0.12024 17 20 cbr 512 ------- 1 19.0 9.5 0 16
- 0.12024 1 20 cbr 512 ------- 1 16.0 9.4 0 14
r 0.121144 9 20 cbr 512 ------- 1 0.0 1.0 0 0
+ 0.121144 20 1 cbr 512 ------- 1 0.0 1.0 0 0
- 0.121144 20 1 cbr 512 ------- 1 0.0 1.0 0 0
r 0.121144 17 20 cbr 512 ------- 1 3.0 1.1 0 2
+ 0.121144 20 1 cbr 512 ------- 1 3.0 1.1 0 2
r 0.121144 1 20 cbr 512 ------- 1 5.0 17.1 0 4
+ 0.121144 20 17 cbr 512 ------- 1 5.0 17.1 0 4
- 0.121144 20 17 cbr 512 ------- 1 5.0 17.1 0 4
r 0.122096 0 9 cbr 512 ------- 1 0.0 1.0 1 17
+ 0.122096 9 20 cbr 512 ------- 1 0.0 1.0 1 17
r 0.122096 2 9 cbr 512 ------- 1 2.0 17.0 1 18
+ 0.122096 9 20 cbr 512 ------- 1 2.0 17.0 1 18
r 0.122096 3 17 cbr 512 ------- 1 3.0 1.1 1 19
+ 0.122096 17 20 cbr 512 ------- 1 3.0 1.1 1 19
r 0.122096 4 9 cbr 512 ------- 1 4.0 9.0 1 20
r 0.122096 5 1 cbr 512 ------- 1 5.0 17.1 1 21
+ 0.122096 1 20 cbr 512 ------- 1 5.0 17.1 1 21
r 0.122096 6 1 cbr 512 ------- 1 6.0 1.2 1 22
r 0.122096 7 17 cbr 512 ------- 1 7.0 9.1 1 23
+ 0.122096 17 20 cbr 512 ------- 1 7.0 9.1 1 23
r 0.122096 8 1 cbr 512 ------- 1 8.0 17.2 1 24
+ 0.122096 1 20 cbr 512 ------- 1 8.0 17.2 1 24
r 0.122096 10 9 cbr 512 ------- 1 10.0 9.2 1 25
r 0.122096 11 1 cbr 512 ------- 1 11.0 17.3 1 26
+ 0.122096 1 20 cbr 512 ------- 1 11.0 17.3 1 26
r 0.122096 12 9 cbr 512 ------- 1 12.0 1.3 1 27
+ 0.122096 9 20 cbr 512 ------- 1 12.0 1.3 1 27
r 0.122096 13 9 cbr 512 ------- 1 13.0 9.3 1 28
r 0.122096 14 17 cbr 512 ------- 1 14.0 17.4 1 29
r 0.122096 15 17 cbr 512 ------- 1 15.0 1.4 1 30
+ 0.122096 17 20 cbr 512 ------- 1 15.0 1.4 1 30
r 0.122096 16 1 cbr 512 ------- 1 16.0 9.4 1 31
+ 0.122096 1 20 cbr 512 ------- 1 16.0 9.4 1 31
r 0.122096 18 9 cbr 512 ------- 1 18.0 1.5 1 32
+ 0.122096 9 20 cbr 512 ------- 1 18.0 1.5 1 32
r 0.122096 19 17 cbr 512 ------- 1 19.0 9.5 1 33
+ 0.122096 17 20 cbr 512 ------- 1 19.0 9.5 1 33
- 0.122288 9 20 cbr 512 ------- 1 0.0 1.0 1 17
- 0.122288 17 20 cbr 512 ------- 1 3.0 1.1 1 19
- 0.122288 1 20 cbr 512 ------- 1 5.0 17.1 1 21
r 0.123192 9 20 cbr 512 ------- 1 2.0 17.0 0 1
+ 0.123192 20 17 cbr 512 ------- 1 2.0 17.0 0 1
r 0.123192 17 20 cbr 512 ------- 1 7.0 9.1 0 6
+ 0.123192 20 9 cbr 512 ------- 1 7.0 9.1 0 6
- 0.123192 20 9 cbr 512 ------- 1 7.0 9.1 0 6
r 0.123192 1 20 cbr 512 ------- 1 8.0 17.2 0 7
+ 0.123192 20 17 cbr 512 ------- 1 8.0 17.2 0 7
- 0.123192 20 1 cbr 512 ------- 1 3.0 1.1 0 2
- 0.123192 20 17 cbr 512 ------- 1 2.0 17.0 0 1
+ 0.124 0 9 cbr 512 ------- 1 0.0 1.0 3 51
- 0.124 0 9 cbr 512 ------- 1 0.0 1.0 3 51
+ 0.124 2 9 cbr 512 ------- 1 2.0 17.0 3 52
- 0.124 2 9 cbr 512 ------- 1 2.0 17.0 3 52
+ 0.124 3 17 cbr 512 ------- 1 3.0 1.1 3 53
- 0.124 3 17 cbr 512 ------- 1 3.0 1.1 3 53
+ 0.124 4 9 cbr 512 ------- 1 4.0 9.0 3 54
- 0.124 4 9 cbr 512 ------- 1 4.0 9.0 3 54
+ 0.124 5 1 cbr 512 ------- 1 5.0 17.1 3 55
- 0.124 5 1 cbr 512 ------- 1 5.0 17.1 3 55
+ 0.124 6 1 cbr 512 ------- 1 6.0 1.2 3 56
- 0.124 6 1 cbr 512 ------- 1 6.0 1.2 3 56
+ 0.124 7 17 cbr 512 ------- 1 7.0 9.1 3 57
- 0.124 7 17 cbr 512 ------- 1 7.0 9.1 3 57
+ 0.124 8 1 cbr 512 ------- 1 8.0 17.2 3 58
- 0.124 8 1 cbr 512 ------- 1 8.0 17.2 3 58
+ 0.124 10 9 cbr 512 ------- 1 10.0 9.2 3 59
- 0.124 10 9 cbr 512 ------- 1 10.0 9.2 3 59
+ 0.124 11 1 cbr 512 ------- 1 11.0 17.3 3 60
- 0.124 11 1 cbr 512 ------- 1 11.0 17.3 3 60
+ 0.124 12 9 cbr 512 ------- 1 12.0 1.3 3 61
- 0.124 12 9 cbr 512 ------- 1 12.0 1.3 3 61
+ 0.124 13 9 cbr 512 ------- 1 13.0 9.3 3 62
- 0.124 13 9 cbr 512 ------- 1 13.0 9.3 3 62
+ 0.124 14 17 cbr 512 ------- 1 14.0 17.4 3 63
- 0.124 14 17 cbr 512 ------- 1 14.0 17.4 3 63
+ 0.124 15 17 cbr 512 ------- 1 15.0 1.4 3 64
- 0.124 15 17 cbr 512 ------- 1 15.0 1.4 3 64
+ 0.124 16 1 cbr 512 ------- 1 16.0 9.4 3 65
- 0.124 16 1 cbr 512 ------- 1 16.0 9.4 3 65
+ 0.124 18 9 cbr 512 ------- 1 18.0 1.5 3 66
- 0.124 18 9 cbr 512 ------- 1 18.0 1.5 3 66
+ 0.124 19 17 cbr 512 ------- 1 19.0 9.5 3 67
- 0.124 19 17 cbr 512 ------- 1 19.0 9.5 3 67
- 0.124336 9 20 cbr 512 ------- 1 2.0 17.0 1 18
- 0.124336 17 20 cbr 512 ------- 1 7.0 9.1 1 23
- 0.124336 1 20 cbr 512 ------- 1 8.0 17.2 1 24
r 0.12524 9 20 cbr 512 ------- 1 12.0 1.3 0 10
+ 0.12524 20 1 cbr 512 ------- 1 12.0 1.3 0 10
r 0.12524 17 20 cbr 512 ------- 1 15.0 1.4 0 13
+ 0.12524 20 1 cbr 512 ------- 1 15.0 1.4 0 13
r 0.12524 1 20 cbr 512 ------- 1 11.0 17.3 0 9
+ 0.12524 20 17 cbr 512 ------- 1 11.0 17.3 0 9
- 0.12524 20 1 cbr 512 ------- 1 12.0 1.3 0 10
- 0.12524 20 17 cbr 512 ------- 1 8.0 17.2 0 7
- 0.126384 9 20 cbr 512 ------- 1 12.0 1.3 1 27
- 0.126384 17 20 cbr 512 ------- 1 15.0 1.4 1 30
- 0.126384 1 20 cbr 512 ------- 1 11.0 17.3 1 26
r 0.127288 9 20 cbr 512 ------- 1 18.0 1.5 0 15
+ 0.127288 20 1 cbr 512 ------- 1 18.0 1.5 0 15
r 0.127288 17 20 cbr 512 ------- 1 19.0 9.5 0 16
+ 0.127288 20 9 cbr 512 ------- 1 19.0 9.5 0 16
- 0.127288 20 9 cbr 512 ------- 1 19.0 9.5 0 16
r 0.127288 1 20 cbr 512 ------- 1 16.0 9.4 0 14
+ 0.127288 20 9 cbr 512 ------- 1 16.0 9.4 0 14
- 0.127288 20 1 cbr 512 ------- 1 15.0 1.4 0 13
- 0.127288 20 17 cbr 512 ------- 1 11.0 17.3 0 9
r 0.128192 20 1 cbr 512 ------- 1 0.0 1.0 0 0
r 0.128192 20 17 cbr 512 ------- 1 5.0 17.1 0 4
- 0.128432 9 20 cbr 512 ------- 1 18.0 1.5 1 32
- 0.128432 17 20 cbr 512 ------- 1 19.0 9.5 1 33
- 0.128432 1 20 cbr 512 ------- 1 16.0 9.4 1 31
r 0.129336 9 20 cbr 512 ------- 1 0.0 1.0 1 17
+ 0.129336 20 1 cbr 512 ------- 1 0.0 1.0 1 17
r 0.129336 17 20 cbr 512 ------- 1 3.0 1.1 1 19
+ 0.129336 20 1 cbr 512 ------- 1 3.0 1.1 1 19
r 0.129336 1 20 cbr 512 ------- 1 5.0 17.1 1 21
+ 0.129336 20 17 cbr 512 ------- 1 5.0 17.1 1 21
- 0.129336 20 9 cbr 512 ------- 1 16.0 9.4 0 14
- 0.129336 20 1 cbr 512 ------- 1 18.0 1.5 0 15
- 0.129336 20 17 cbr 512 ------- 1 5.0 17.1 1 21
r 0.130096 0 9 cbr 512 ------- 1 0.0 1.0 2 34
+ 0.130096 9 20 cbr 512 ------- 1 0.0 1.0 2 34
r 0.130096 2 9 cbr 512 ------- 1 2.0 17.0 2 35
+ 0.130096 9 20 cbr 512 ------- 1 2.0 17.0 2 35
r 0.130096 3 17 cbr 512 ------- 1 3.0 1.1 2 36
+ 0.130096 17 20 cbr 512 ------- 1 3.0 1.1 2 36
r 0.130096 4 9 cbr 512 ------- 1 4.0 9.0 2 37
r 0.130096 5 1 cbr 512 ------- 1 5.0 17.1 2 38
+ 0.130096 1 20 cbr 512 ------- 1 5.0 17.1 2 38
r 0.130096 6 1 cbr 512 ------- 1 6.0 1.2 2 39
r 0.130096 7 17 cbr 512 ------- 1 7.0 9.1 2 40
+ 0.130096 17 20 cbr 512 ------- 1 7.0 9.1 2 40
r 0.130096 8 1 cbr 512 ------- 1 8.0 17.2 2 41
+ 0.130096 1 20 cbr 512 ------- 1 8.0 17.2 2 41
r 0.130096 10 9 cbr 512 ------- 1 10.0 9.2 2 42
r 0.130096 11 1 cbr 512 ------- 1 11.0 17.3 2 43
+ 0.130096 1 20 cbr 512 ------- 1 11.0 17.3 2 43
r 0.130096 12 9 cbr 512 ------- 1 12.0 1.3 2 44
+ 0.130096 9 20 cbr 512 ------- 1 12.0 1.3 2 44
r 0.130096 13 9 cbr 512 ------- 1 13.0 9.3 2 45
r 0.130096 14 17 cbr 512 ------- 1 14.0 17.4 2 46
r 0.130096 15 17 cbr 512 ------- 1 15.0 1.4 2 47
+ 0.130096 17 20 cbr 512 ------- 1 15.0 1.4 2 47
r 0.130096 16 1 cbr 512 ------- 1 16.0 9.4 2 48
+ 0.130096 1 20 cbr 512 ------- 1 16.0 9.4 2 48
r 0.130096 18 9 cbr 512 ------- 1 18.0 1.5 2 49
+ 0.130096 9 20 cbr 512 ------- 1 18.0 1.5 2 49
r 0.130096 19 17 cbr 512 ------- 1 19.0 9.5 2 50
+ 0.130096 17 20 cbr 512 ------- 1 19.0 9.5 2 50
r 0.13024 20 9 cbr 512 ------- 1 7.0 9.1 0 6
r 0.13024 20 1 cbr 512 ------- 1 3.0 1.1 0 2
r 0.13024 20 17 cbr 512 ------- 1 2.0 17.0 0 1
- 0.13048 9 20 cbr 512 ------- 1 0.0 1.0 2 34
- 0.13048 17 20 cbr 512 ------- 1 3.0 1.1 2 36
- 0.13048 1 20 cbr 512 ------- 1 5.0 17.1 2 38
r 0.131384 9 20 cbr 512 ------- 1 2.0 17.0 1 18
+ 0.131384 20 17 cbr 512 ------- 1 2.0 17.0 1 18
r 0.131384 17 20 cbr 512 ------- 1 7.0 9.1 1 23
+ 0.131384 20 9 cbr 512 ------- 1 7.0 9.1 1 23
r 0.131384 1 20 cbr 512 ------- 1 8.0 17.2 1 24
+ 0.131384 20 17 cbr 512 ------- 1 8.0 17.2 1 24
- 0.131384 20 9 cbr 512 ------- 1 7.0 9.1 1 23
- 0.131384 20 1 cbr 512 ------- 1 0.0 1.0 1 17
- 0.131384 20 17 cbr 512 ------- 1 2.0 17.0 1 18
+ 0.132 0 9 cbr 512 ------- 1 0.0 1.0 4 68
- 0.132 0 9 cbr 512 ------- 1 0.0 1.0 4 68
+ 0.132 2 9 cbr 512 ------- 1 2.0 17.0 4 69
- 0.132 2 9 cbr 512 ------- 1 2.0 17.0 4 69
+ 0.132 3 17 cbr 512 ------- 1 3.0 1.1 4 70
- 0.132 3 17 cbr 512 ------- 1 3.0 1.1 4 70
+ 0.132 4 9 cbr 512 ------- 1 4.0 9.0 4 71
- 0.132 4 9 cbr 512 ------- 1 4.0 9.0 4 71
+ 0.132 5 1 cbr 512 ------- 1 5.0 17.1 4 72
- 0.132 5 1 cbr 512 ------- 1 5.0 17.1 4 72
+ 0.132 6 1 cbr 512 ------- 1 6.0 1.2 4 73
- 0.132 6 1 cbr 512 ------- 1 6.0 1.2 4 73
+ 0.132 7 17 cbr 512 ------- 1 7.0 9.1 4 74
- 0.132 7 17 cbr 512 ------- 1 7.0 9.1 4 74
+ 0.132 8 1 cbr 512 ------- 1 8.0 17.2 4 75
- 0.132 8 1 cbr 512 ------- 1 8.0 17.2 4 75
+ 0.132 10 9 cbr 512 ------- 1 10.0 9.2 4 76
- 0.132 10 9 cbr 512 ------- 1 10.0 9.2 4 76
+ 0.132 11 1 cbr 512 ------- 1 11.0 17.3 4 77
- 0.132 11 1 cbr 512 ------- 1 11.0 17.3 4 77
+ 0.132 12 9 cbr 512 ------- 1 12.0 1.3 4 78
- 0.132 12 9 cbr 512 ------- 1 12.0 1.3 4 78
+ 0.132 13 9 cbr 512 ------- 1 13.0 9.3 4 79
- 0.132 13 9 cbr 512 ------- 1 13.0 9.3 4 79
+ 0.132 14 17 cbr 512 ------- 1 14.0 17.4 4 80
- 0.132 14 17 cbr 512 ------- 1 14.0 17.4 4 80
+ 0.132 15 17 cbr 512 ------- 1 15.0 1.4 4 81
- 0.132 15 17 cbr 512 ------- 1 15.0 1.4 4 81
+ 0.132 16 1 cbr 512 ------- 1 16.0 9.4 4 82
- 0.132 16 1 cbr 512 ------- 1 16.0 9.4 4 82
+ 0.132 18 9 cbr 512 ------- 1 18.0 1.5 4 83
- 0.132 18 9 cbr 512 ------- 1 18.0 1.5 4 83
+ 0.132 19 17 cbr 512 ------- 1 19.0 9.5 4 84
- 0.132 19 17 cbr 512 ------- 1 19.0 9.5 4 84
r 0.132288 20 1 cbr 512 ------- 1 12.0 1.3 0 10
r 0.132288 20 17 cbr 512 ------- 1 8.0 17.2 0 7
- 0.132528 9 20 cbr 512 ------- 1 2.0 17.0 2 35
- 0.132528 17 20 cbr 512 ------- 1 7.0 9.1 2 40
- 0.132528 1 20 cbr 512 ------- 1 8.0 17.2 2 41
r 0.133432 9 20 cbr 512 ------- 1 12.0 1.3 1 27
+ 0.133432 20 1 cbr 512 ------- 1 12.0 1.3 1 27
r 0.133432 17 20 cbr 512 ------- 1 15.0 1.4 1 30
+ 0.133432 20 1 cbr 512 ------- 1 15.0 1.4 1 30
r 0.133432 1 20 cbr 512 ------- 1 11.0 17.3 1 26
+ 0.133432 20 17 cbr 512 ------- 1 11.0 17.3 1 26
- 0.133432 20 1 cbr 512 ------- 1 3.0 1.1 1 19
- 0.133432 20 17 cbr 512 ------- 1 8.0 17.2 1 24
r 0.134336 20 9 cbr 512 ------- 1 19.0 9.5 0 16
r 0.134336 20 1 cbr 512 ------- 1 15.0 1.4 0 13
r 0.134336 20 17 cbr 512 ------- 1 11.0 17.3 0 9
- 0.134576 9 20 cbr 512 ------- 1 12.0 1.3 2 44
- 0.134576 17 20 cbr 512 ------- 1 15.0 1.4 2 47
- 0.134576 1 20 cbr 512 ------- 1 11.0 17.3 2 43
r 0.13548 9 20 cbr 512 ------- 1 18.0 1.5 1 32
+ 0.13548 20 1 cbr 512 ------- 1 18.0 1.5 1 32
r 0.13548 17 20 cbr 512 ------- 1 19.0 9.5 1 33
+ 0.13548 20 9 cbr 512 ------- 1 19.0 9.5 1 33
- 0.13548 20 9 cbr 512 ------- 1 19.0 9.5 1 33
r 0.13548 1 20 cbr 512 ------- 1 16.0 9.4 1 31
+ 0.13548 20 9 cbr 512 ------- 1 16.0 9.4 1 31
- 0.13548 20 1 cbr 512 ------- 1 12.0 1.3 1 27
- 0.13548 20 17 cbr 512 ------- 1 11.0 17.3 1 26
r 0.136384 20 9 cbr 512 ------- 1 16.0 9.4 0 14
r 0.136384 20 1 cbr 512 ------- 1 18.0 1.5 0 15
r 0.136384 20 17 cbr 512 ------- 1 5.0 17.1 1 21
- 0.136624 9 20 cbr 512 ------- 1 18.0 1.5 2 49
- 0.136624 17 20 cbr 512 ------- 1 19.0 9.5 2 50
- 0.136624 1 20 cbr 512 ------- 1 16.0 9.4 2 48
r 0.137528 9 20 cbr 512 ------- 1 0.0 1.0 2 34
+ 0.137528 20 1 cbr 512 ------- 1 0.0 1.0 2 34
r 0.137528 17 20 cbr 512 ------- 1 3.0 1.1 2 36
+ 0.137528 20 1 cbr 512 ------- 1 3.0 1.1 2 36
r 0.137528 1 20 cbr 512 ------- 1 5.0 17.1 2 38
+ 0.137528 20 17 cbr 512 ------- 1 5.0 17.1 2 38
- 0.137528 20 9 cbr 512 ------- 1 16.0 9.4 1 31
- 0.137528 20 1 cbr 512 ------- 1 15.0 1.4 1 30
- 0.137528 20 17 cbr 512 ------- 1 5.0 17.1 2 38
r 0.138096 0 9 cbr 512 ------- 1 0.0 1.0 3 51
+ 0.138096 9 20 cbr 512 ------- 1 0.0 1.0 3 51
r 0.138096 2 9 cbr 512 ------- 1 2.0 17.0 3 52
+ 0.138096 9 20 cbr 512 ------- 1 2.0 17.0 3 52
r 0.138096 3 17 cbr 512 ------- 1 3.0 1.1 3 53
+ 0.138096 17 20 cbr 512 ------- 1 3.0 1.1 3 53
r 0.138096 4 9 cbr 512 ------- 1 4.0 9.0 3 54
r 0.138096 5 1 cbr 512 ------- 1 5.0 17.1 3 55
+ 0.138096 1 20 cbr 512 ------- 1 5.0 17.1 3 55
r 0.138096 6 1 cbr 512 ------- 1 6.0 1.2 3 56
r 0.138096 7 17 cbr 512 ------- 1 7.0 9.1 3 57
+ 0.138096 17 20 cbr 512 ------- 1 7.0 9.1 3 57
r 0.138096 8 1 cbr 512 ------- 1 8.0 17.2 3 58
+ 0.138096 1 20 cbr 512 ------- 1 8.0 17.2 3 58
r 0.138096 10 9 cbr 512 ------- 1 10.0 9.2 3 59
r 0.138096 11 1 cbr 512 ------- 1 11.0 17.3 3 60
+ 0.138096 1 20 cbr 512 ------- 1 11.0 17.3 3 60
r 0.138096 12 9 cbr 512 ------- 1 12.0 1.3 3 61
+ 0.138096 9 20 cbr 512 ------- 1 12.0 1.3 3 61
r 0.138096 13 9 cbr 512 ------- 1 13.0 9.3 3 62
r 0.138096 14 17 cbr 512 ------- 1 14.0 17.4 3 63
r 0.138096 15 17 cbr 512 ------- 1 15.0 1.4 3 64
+ 0.138096 17 20 cbr 512 ------- 1 15.0 1.4 3 64
r 0.138096 16 1 cbr 512 ------- 1 16.0 9.4 3 65
+ 0.138096 1 20 cbr 512 ------- 1 16.0 9.4 3 65
r 0.138096 18 9 cbr 512 ------- 1 18.0 1.5 3 66
+ 0.138096 9 20 cbr 512 ------- 1 18.0 1.5 3 66
r 0.138096 19 17 cbr 512 ------- 1 19.0 9.5 3 67
+ 0.138096 17 20 cbr 512 ------- 1 19.0 9.5 3 67
r 0.138432 20 9 cbr 512 ------- 1 7.0 9.1 1 23
r 0.138432 20 1 cbr 512 ------- 1 0.0 1.0 1 17
r 0.138432 20 17 cbr 512 ------- 1 2.0 17.0 1 18
- 0.138672 9 20 cbr 512 ------- 1 0.0 1.0 3 51
- 0.138672 17 20 cbr 512 ------- 1 3.0 1.1 3 53
- 0.138672 1 20 cbr 512 ------- 1 5.0 17.1 3 55
r 0.139576 9 20 cbr 512 ------- 1 2.0 17.0 2 35
+ 0.139576 20 17 cbr 512 ------- 1 2.0 17.0 2 35
r 0.139576 17 20 cbr 512 ------- 1 7.0 9.1 2 40
+ 0.139576 20 9 cbr 512 ------- 1 7.0 9.1 2 40
r 0.139576 1 20 cbr 512 ------- 1 8.0 17.2 2 41
+ 0.139576 20 17 cbr 512 ------- 1 8.0 17.2 2 41
- 0.139576 20 9 cbr 512 ------- 1 7.0 9.1 2 40
- 0.139576 20 1 cbr 512 ------- 1 18.0 1.5 1 32
- 0.139576 20 17 cbr 512 ------- 1 2.0 17.0 2 35
+ 0.14 0 9 cbr 512 ------- 1 0.0 1.0 5 85
- 0.14 0 9 cbr 512 ------- 1 0.0 1.0 5 85
+ 0.14 2 9 cbr 512 ------- 1 2.0 17.0 5 86
- 0.14 2 9 cbr 512 ------- 1 2.0 17.0 5 86
+ 0.14 3 17 cbr 512 ------- 1 3.0 1.1 5 87
- 0.14 3 17 cbr 512 ------- 1 3.0 1.1 5 87
+ 0.14 4 9 cbr 512 ------- 1 4.0 9.0 5 88
- 0.14 4 9 cbr 512 ------- 1 4.0 9.0 5 88
+ 0.14 5 1 cbr 512 ------- 1 5.0 17.1 5 89
- 0.14 5 1 cbr 512 ------- 1 5.0 17.1 5 89
+ 0.14 6 1 cbr 512 ------- 1 6.0 1.2 5 90
- 0.14 6 1 cbr 512 ------- 1 6.0 1.2 5 90
+ 0.14 7 17 cbr 512 ------- 1 7.0 9.1 5 91
- 0.14 7 17 cbr 512 ------- 1 7.0 9.1 5 91
+ 0.14 8 1 cbr 512 ------- 1 8.0 17.2 5 92
- 0.14 8 1 cbr 512 ------- 1 8.0 17.2 5 92
+ 0.14 10 9 cbr 512 ------- 1 10.0 9.2 5 93
- 0.14 10 9 cbr 512 ------- 1 10.0 9.2 5 93
+ 0.14 11 1 cbr 512 ------- 1 11.0 17.3 5 94
- 0.14 11 1 cbr 512 ------- 1 11.0 17.3 5 94
+ 0.14 12 9 cbr 512 ------- 1 12.0 1.3 5 95
- 0.14 12 9 cbr 512 ------- 1 12.0 1.3 5 95
+ 0.14 13 9 cbr 512 ------- 1 13.0 9.3 5 96
- 0.14 13 9 cbr 512 ------- 1 13.0 9.3 5 96
+ 0.14 14 17 cbr 512 ------- 1 14.0 17.4 5 97
- 0.14 14 17 cbr 512 ------- 1 14.0 17.4 5 97
+ 0.14 15 17 cbr 512 ------- 1 15.0 1.4 5 98
- 0.14 15 17 cbr 512 ------- 1 15.0 1.4 5 98
+ 0.14 16 1 cbr 512 ------- 1 16.0 9.4 5 99
- 0.14 16 1 cbr 512 ------- 1 16.0 9.4 5 99
+ 0.14 18 9 cbr 512 ------- 1 18.0 1.5 5 100
- 0.14 18 9 cbr 512 ------- 1 18.0 1.5 5 100
+ 0.14 19 17 cbr 512 ------- 1 19.0 9.5 5 101
- 0.14 19 17 cbr 512 ------- 1 19.0 9.5 5 101
r 0.14048 20 1 cbr 512 ------- 1 3.0 1.1 1 19
r 0.14048 20 17 cbr 512 ------- 1 8.0 17.2 1 24
- 0.14072 9 20 cbr 512 ------- 1 2.0 17.0 3 52
- 0.14072 17 20 cbr 512 ------- 1 7.0 9.1 3 57
- 0.14072 1 20 cbr 512 ------- 1 8.0 17.2 3 58
r 0.141624 9 20 cbr 512 ------- 1 12.0 1.3 2 44
+ 0.141624 20 1 cbr 512 ------- 1 12.0 1.3 2 44
r 0.141624 17 20 cbr 512 ------- 1 15.0 1.4 2 47
+ 0.141624 20 1 cbr 512 ------- 1 15.0 1.4 2 47
r 0.141624 1 20 cbr 512 ------- 1 11.0 17.3 2 43
+ 0.141624 20 17 cbr 512 ------- 1 11.0 17.3 2 43
- 0.141624 20 1 cbr 512 ------- 1 0.0 1.0 2 34
- 0.141624 20 17 cbr 512 ------- 1 8.0 17.2 2 41
r 0.142528 20 9 cbr 512 ------- 1 19.0 9.5 1 33
r 0.142528 20 1 cbr 512 ------- 1 12.0 1.3 1 27
r 0.142528 20 17 cbr 512 ------- 1 11.0 17.3 1 26
- 0.142768 9 20 cbr 512 ------- 1 12.0 1.3 3 61
- 0.142768 17 20 cbr 512 ------- 1 15.0 1.4 3 64
- 0.142768 1 20 cbr 512 ------- 1 11.0 17.3 3 60
r 0.143672 9 20 cbr 512 ------- 1 18.0 1.5 2 49
+ 0.143672 20 1 cbr 512 ------- 1 18.0 1.5 2 49
r 0.143672 17 20 cbr 512 ------- 1 19.0 9.5 2 50
+ 0.143672 20 9 cbr 512 ------- 1 19.0 9.5 2 50
- 0.143672 20 9 cbr 512 ------- 1 19.0 9.5 2 50
r 0.143672 1 20 cbr 512 ------- 1 16.0 9.4 2 48
+ 0.143672 20 9 cbr 512 ------- 1 16.0 9.4 2 48
- 0.143672 20 1 cbr 512 ------- 1 3.0 1.1 2 36
- 0.143672 20 17 cbr 512 ------- 1 11.0 17.3 2 43
r 0.144576 20 9 cbr 512 ------- 1 16.0 9.4 1 31
r 0.144576 20 1 cbr 512 ------- 1 15.0 1.4 1 30
r 0.144576 20 17 cbr 512 ------- 1 5.0 17.1 2 38
- 0.144816 9 20 cbr 512 ------- 1 18.0 1.5 3 66
- 0.144816 17 20 cbr 512 ------- 1 19.0 9.5 3 67
- 0.144816 1 20 cbr 512 ------- 1 16.0 9.4 3 65
r 0.14572 9 20 cbr 512 ------- 1 0.0 1.0 3 51
+ 0.14572 20 1 cbr 512 ------- 1 0.0 1.0 3 51
r 0.14572 17 20 cbr 512 ------- 1 3.0 1.1 3 53
+ 0.14572 20 1 cbr 512 ------- 1 3.0 1.1 3 53
r 0.14572 1 20 cbr 512 ------- 1 5.0 17.1 3 55
+ 0.14572 20 17 cbr 512 ------- 1 5.0 17.1 3 55
- 0.14572 20 9 cbr 512 ------- 1 16.0 9.4 2 48
- 0.14572 20 1 cbr 512 ------- 1 12.0 1.3 2 44
- 0.14572 20 17 cbr 512 ------- 1 5.0 17.1 3 55
r 0.146096 0 9 cbr 512 ------- 1 0.0 1.0 4 68
+ 0.146096 9 20 cbr 512 ------- 1 0.0 1.0 4 68
r 0.146096 2 9 cbr 512 ------- 1 2.0 17.0 4 69
+ 0.146096 9 20 cbr 512 ------- 1 2.0 17.0 4 69
r 0.146096 3 17 cbr 512 ------- 1 3.0 1.1 4 70
+ 0.146096 17 20 cbr 512 ------- 1 3.0 1.1 4 70
r 0.146096 4 9 cbr 512 ------- 1 4.0 9.0 4 71
r 0.146096 5 1 cbr 512 ------- 1 5.0 17.1 4 72
+ 0.146096 1 20 cbr 512 ------- 1 5.0 17.1 4 72
r 0.146096 6 1 cbr 512 ------- 1 6.0 1.2 4 73
r 0.146096 7 17 cbr 512 ------- 1 7.0 9.1 4 74
+ 0.146096 17 20 cbr 512 ------- 1 7.0 9.1 4 74
r 0.146096 8 1 cbr 512 ------- 1 8.0 17.2 4 75
+ 0.146096 1 20 cbr 512 ------- 1 8.0 17.2 4 75
r 0.146096 10 9 cbr 512 ------- 1 10.0 9.2 4 76
r 0.146096 11 1 cbr 512 ------- 1 11.0 17.3 4 77
+ 0.146096 1 20 cbr 512 ------- 1 11.0 17.3 4 77
r 0.146096 12 9 cbr 512 ------- 1 12.0 1.3 4 78
+ 0.146096 9 20 cbr 512 ------- 1 12.0 1.3 4 78
r 0.146096 13 9 cbr 512 ------- 1 13.0 9.3 4 79
r 0.146096 14 17 cbr 512 ------- 1 14.0 17.4 4 80
r 0.146096 15 17 cbr 512 ------- 1 15.0 1.4 4 81
+ 0.146096 17 20 cbr 512 ------- 1 15.0 1.4 4 81
r 0.146096 16 1 cbr 512 ------- 1 16.0 9.4 4 82
+ 0.146096 1 20 cbr 512 ------- 1 16.0 9.4 4 82
r 0.146096 18 9 cbr 512 ------- 1 18.0 1.5 4 83
+ 0.146096 9 20 cbr 512 ------- 1 18.0 1.5 4 83
r 0.146096 19 17 cbr 512 ------- 1 19.0 9.5 4 84
+ 0.146096 17 20 cbr 512 ------- 1 19.0 9.5 4 84
r 0.146624 20 9 cbr 512 ------- 1 7.0 9.1 2 40
r 0.146624 20 1 cbr 512 ------- 1 18.0 1.5 1 32
r 0.146624 20 17 cbr 512 ------- 1 2.0 17.0 2 35
- 0.146864 9 20 cbr 512 ------- 1 0.0 1.0 4 68
- 0.146864 17 20 cbr 512 ------- 1 3.0 1.1 4 70
- 0.146864 1 20 cbr 512 ------- 1 5.0 17.1 4 72
r 0.147768 9 20 cbr 512 ------- 1 2.0 17.0 3 52
+ 0.147768 20 17 cbr 512 ------- 1 2.0 17.0 3 52
r 0.147768 17 20 cbr 512 ------- 1 7.0 9.1 3 57
+ 0.147768 20 9 cbr 512 ------- 1 7.0 9.1 3 57
r 0.147768 1 20 cbr 512 ------- 1 8.0 17.2 3 58
+ 0.147768 20 17 cbr 512 ------- 1 8.0 17.2 3 58
- 0.147768 20 9 cbr 512 ------- 1 7.0 9.1 3 57
- 0.147768 20 1 cbr 512 ------- 1 15.0 1.4 2 47
- 0.147768 20 17 cbr 512 ------- 1 2.0 17.0 3 52
+ 0.148 0 9 cbr 512 ------- 1 0.0 1.0 6 102
- 0.148 0 9 cbr 512 ------- 1 0.0 1.0 6 102
+ 0.148 2 9 cbr 512 ------- 1 2.0 17.0 6 103
- 0.148 2 9 cbr 512 ------- 1 2.0 17.0 6 103
+ 0.148 3 17 cbr 512 ------- 1 3.0 1.1 6 104
- 0.148 3 17 cbr 512 ------- 1 3.0 1.1 6 104
+ 0.148 4 9 cbr 512 ------- 1 4.0 9.0 6 105
- 0.148 4 9 cbr 512 ------- 1 4.0 9.0 6 105
+ 0.148 5 1 cbr 512 ------- 1 5.0 17.1 6 106
- 0.148 5 1 cbr 512 ------- 1 5.0 17.1 6 106
+ 0.148 6 1 cbr 512 ------- 1 6.0 1.2 6 107
- 0.148 6 1 cbr 512 ------- 1 6.0 1.2 6 107
+ 0.148 7 17 cbr 512 ------- 1 7.0 9.1 6 108
- 0.148 7 17 cbr 512 ------- 1 7.0 9.1 6 108
+ 0.148 8 1 cbr 512 ------- 1 8.0 17.2 6 109
- 0.148 8 1 cbr 512 ------- 1 8.0 17.2 6 109
+ 0.148 10 9 cbr 512 ------- 1 10.0 9.2 6 110
- 0.148 10 9 cbr 512 ------- 1 10.0 9.2 6 110
+ 0.148 11 1 cbr 512 ------- 1 11.0 17.3 6 111
- 0.148 11 1 cbr 512 ------- 1 11.0 17.3 6 111
+ 0.148 12 9 cbr 512 ------- 1 12.0 1.3 6 112
- 0.148 12 9 cbr 512 ------- 1 12.0 1.3 6 112
+ 0.148 13 9 cbr 512 ------- 1 13.0 9.3 6 113
- 0.148 13 9 cbr 512 ------- 1 13.0 9.3 6 113
+ 0.148 14 17 cbr 512 ------- 1 14.0 17.4 6 114
- 0.148 14 17 cbr 512 ------- 1 14.0 17.4 6 114
+ 0.148 15 17 cbr 512 ------- 1 15.0 1.4 6 115
- 0.148 15 17 cbr 512 ------- 1 15.0 1.4 6 115
+ 0.148 16 1 cbr 512 ------- 1 16.0 9.4 6 116
- 0.148 16 1 cbr 512 ------- 1 16.0 9.4 6 116
+ 0.148 18 9 cbr 512 ------- 1 18.0 1.5 6 117
- 0.148 18 9 cbr 512 ------- 1 18.0 1.5 6 117
+ 0.148 19 17 cbr 512 ------- 1 19.0 9.5 6 118
- 0.148 19 17 cbr 512 ------- 1 19.0 9.5 6 118
r 0.148672 20 1 cbr 512 ------- 1 0.0 1.0 2 34
r 0.148672 20 17 cbr 512 ------- 1 8.0 17.2 2 41
- 0.148912 9 20 cbr 512 ------- 1 2.0 17.0 4 69
- 0.148912 17 20 cbr 512 ------- 1 7.0 9.1 4 74
- 0.148912 1 20 cbr 512 ------- 1 8.0 17.2 4 75
r 0.149816 9 20 cbr 512 ------- 1 12.0 1.3 3 61
+ 0.149816 20 1 cbr 512 ------- 1 12.0 1.3 3 61
r 0.149816 17 20 cbr 512 ------- 1 15.0 1.4 3 64
+ 0.149816 20 1 cbr 512 ------- 1 15.0 1.4 3 64
r 0.149816 1 20 cbr 512 ------- 1 11.0 17.3 3 60
+ 0.149816 20 17 cbr 512 ------- 1 11.0 17.3 3 60
- 0.149816 20 1 cbr 512 ------- 1 18.0 1.5 2 49
- 0.149816 20 17 cbr 512 ------- 1 8.0 17.2 3 58
r 0.15072 20 9 cbr 512 ------- 1 19.0 9.5 2 50
r 0.15072 20 1 cbr 512 ------- 1 3.0 1.1 2 36
r 0.15072 20 17 cbr 512 ------- 1 11.0 17.3 2 43
- 0.15096 9 20 cbr 512 ------- 1 12.0 1.3 4 78
- 0.15096 17 20 cbr 512 ------- 1 15.0 1.4 4 81
- 0.15096 1 20 cbr 512 ------- 1 11.0 17.3 4 77
r 0.151864 9 20 cbr 512 ------- 1 18.0 1.5 3 66
+ 0.151864 20 1 cbr 512 ------- 1 18.0 1.5 3 66
r 0.151864 17 20 cbr 512 ------- 1 19.0 9.5 3 67
+ 0.151864 20 9 cbr 512 ------- 1 19.0 9.5 3 67
- 0.151864 20 9 cbr 512 ------- 1 19.0 9.5 3 67
r 0.151864 1 20 cbr 512 ------- 1 16.0 9.4 3 65
+ 0.151864 20 9 cbr 512 ------- 1 16.0 9.4 3 65
- 0.151864 20 1 cbr 512 ------- 1 0.0 1.0 3 51
- 0.151864 20 17 cbr 512 ------- 1 11.0 17.3 3 60
r 0.152768 20 9 cbr 512 ------- 1 16.0 9.4 2 48
r 0.152768 20 1 cbr 512 ------- 1 12.0 1.3 2 44
r 0.152768 20 17 cbr 512 ------- 1 5.0 17.1 3 55
- 0.153008 9 20 cbr 512 ------- 1 18.0 1.5 4 83
- 0.153008 17 20 cbr 512 ------- 1 19.0 9.5 4 84
- 0.153008 1 20 cbr 512 ------- 1 16.0 9.4 4 82
r 0.153912 9 20 cbr 512 ------- 1 0.0 1.0 4 68
+ 0.153912 20 1 cbr 512 ------- 1 0.0 1.0 4 68
r 0.153912 17 20 cbr 512 ------- 1 3.0 1.1 4 70
+ 0.153912 20 1 cbr 512 ------- 1 3.0 1.1 4 70
r 0.153912 1 20 cbr 512 ------- 1 5.0 17.1 4 72
+ 0.153912 20 17 cbr 512 ------- 1 5.0 17.1 4 72
- 0.153912 20 9 cbr 512 ------- 1 16.0 9.4 3 65
- 0.153912 20 1 cbr 512 ------- 1 3.0 1.1 3 53
- 0.153912 20 17 cbr 512 ------- 1 5.0 17.1 4 72
r 0.154096 0 9 cbr 512 ------- 1 0.0 1.0 5 85
+ 0.154096 9 20 cbr 512 ------- 1 0.0 1.0 5 85
r 0.154096 2 9 cbr 512 ------- 1 2.0 17.0 5 86
+ 0.154096 9 20 cbr 512 ------- 1 2.0 17.0 5 86
r 0.154096 3 17 cbr 512 ------- 1 3.0 1.1 5 87
+ 0.154096 17 20 cbr 512 ------- 1 3.0 1.1 5 87
r 0.154096 4 9 cbr 512 ------- 1 4.0 9.0 5 88
r 0.154096 5 1 cbr 512 ------- 1 5.0 17.1 5 89
+ 0.154096 1 20 cbr 512 ------- 1 5.0 17.1 5 89
r 0.154096 6 1 cbr 512 ------- 1 6.0 1.2 5 90
r 0.154096 7 17 cbr 512 ------- 1 7.0 9.1 5 91
+ 0.154096 17 20 cbr 512 ------- 1 7.0 9.1 5 91
r 0.154096 8 1 cbr 512 ------- 1 8.0 17.2 5 92
+ 0.154096 1 20 cbr 512 ------- 1 8.0 17.2 5 92
r 0.154096 10 9 cbr 512 ------- 1 10.0 9.2 5 93
r 0.154096 11 1 cbr 512 ------- 1 11.0 17.3 5 94
+ 0.154096 1 20 cbr 512 ------- 1 11.0 17.3 5 94
r 0.154096 12 9 cbr 512 ------- 1 12.0 1.3 5 95
+ 0.154096 9 20 cbr 512 ------- 1 12.0 1.3 5 95