+ 0.1 2 4 cbr 512 ------- 1 2.0 4.0 0 0
- 0.1 2 4 cbr 512 ------- 1 2.0 4.0 0 0
+ 0.1 6 4 cbr 512 ------- 1 6.0 1.0 0 1
- 0.1 6 4 cbr 512 ------- 1 6.0 1.0 0 1
+ 0.1 7 1 cbr 512 ------- 1 7.0 5.0 0 2
- 0.1 7 1 cbr 512 ------- 1 7.0 5.0 0 2
+ 0.1 9 1 cbr 512 ------- 1 9.0 1.1 0 3
- 0.1 9 1 cbr 512 ------- 1 9.0 1.1 0 3
+ 0.1 11 1 cbr 512 ------- 1 11.0 4.1 0 4
- 0.1 11 1 cbr 512 ------- 1 11.0 4.1 0 4
+ 0.1 12 5 cbr 512 ------- 1 12.0 1.2 0 5
- 0.1 12 5 cbr 512 ------- 1 12.0 1.2 0 5
+ 0.1 14 5 cbr 512 ------- 1 14.1 4.2 0 6
- 0.1 14 5 cbr 512 ------- 1 14.1 4.2 0 6
+ 0.1 16 1 cbr 512 ------- 1 16.0 5.1 0 7
- 0.1 16 1 cbr 512 ------- 1 16.0 5.1 0 7
+ 0.1 17 1 cbr 512 ------- 1 17.1 4.3 0 8
- 0.1 17 1 cbr 512 ------- 1 17.1 4.3 0 8
+ 0.1 19 4 cbr 512 ------- 1 19.0 5.2 0 9
- 0.1 19 4 cbr 512 ------- 1 19.0 5.2 0 9
+ 0.108 2 4 cbr 512 ------- 1 2.0 4.0 1 10
- 0.108 2 4 cbr 512 ------- 1 2.0 4.0 1 10
+ 0.108 6 4 cbr 512 ------- 1 6.0 1.0 1 11
- 0.108 6 4 cbr 512 ------- 1 6.0 1.0 1 11
+ 0.108 7 1 cbr 512 ------- 1 7.0 5.0 1 12
- 0.108 7 1 cbr 512 ------- 1 7.0 5.0 1 12
+ 0.108 9 1 cbr 512 ------- 1 9.0 1.1 1 13
- 0.108 9 1 cbr 512 ------- 1 9.0 1.1 1 13
+ 0.108 11 1 cbr 512 ------- 1 11.0 4.1 1 14
- 0.108 11 1 cbr 512 ------- 1 11.0 4.1 1 14
+ 0.108 12 5 cbr 512 ------- 1 12.0 1.2 1 15
- 0.108 12 5 cbr 512 ------- 1 12.0 1.2 1 15
+ 0.108 14 5 cbr 512 ------- 1 14.1 4.2 1 16
- 0.108 14 5 cbr 512 ------- 1 14.1 4.2 1 16
+ 0.108 16 1 cbr 512 ------- 1 16.0 5.1 1 17
- 0.108 16 1 cbr 512 ------- 1 16.0 5.1 1 17
+ 0.108 17 1 cbr 512 ------- 1 17.1 4.3 1 18
- 0.108 17 1 cbr 512 ------- 1 17.1 4.3 1 18
+ 0.108 19 4 cbr 512 ------- 1 19.0 5.2 1 19
- 0.108 19 4 cbr 512 ------- 1 19.0 5.2 1 19
r 0.114096 2 4 cbr 512 ------- 1 2.0 4.0 0 0
r 0.114096 6 4 cbr 512 ------- 1 6.0 1.0 0 1
+ 0.114096 4 20 cbr 512 ------- 1 6.0 1.0 0 1
- 0.114096 4 20 cbr 512 ------- 1 6.0 1.0 0 1
r 0.114096 7 1 cbr 512 ------- 1 7.0 5.0 0 2
+ 0.114096 1 20 cbr 512 ------- 1 7.0 5.0 0 2
- 0.114096 1 20 cbr 512 ------- 1 7.0 5.0 0 2
r 0.114096 9 1 cbr 512 ------- 1 9.0 1.1 0 3
r 0.114096 11 1 cbr 512 ------- 1 11.0 4.1 0 4
+ 0.114096 1 20 cbr 512 ------- 1 11.0 4.1 0 4
r 0.114096 12 5 cbr 512 ------- 1 12.0 1.2 0 5
+ 0.114096 5 20 cbr 512 ------- 1 12.0 1.2 0 5
- 0.114096 5 20 cbr 512 ------- 1 12.0 1.2 0 5
r 0.114096 14 5 cbr 512 ------- 1 14.1 4.2 0 6
+ 0.114096 5 20 cbr 512 ------- 1 14.1 4.2 0 6
r 0.114096 16 1 cbr 512 ------- 1 16.0 5.1 0 7
+ 0.114096 1 20 cbr 512 ------- 1 16.0 5.1 0 7
r 0.114096 17 1 cbr 512 ------- 1 17.1 4.3 0 8
+ 0.114096 1 20 cbr 512 ------- 1 17.1 4.3 0 8
r 0.114096 19 4 cbr 512 ------- 1 19.0 5.2 0 9
+ 0.114096 4 20 cbr 512 ------- 1 19.0 5.2 0 9
+ 0.116 2 4 cbr 512 ------- 1 2.0 4.0 2 20
- 0.116 2 4 cbr 512 ------- 1 2.0 4.0 2 20
+ 0.116 6 4 cbr 512 ------- 1 6.0 1.0 2 21
- 0.116 6 4 cbr 512 ------- 1 6.0 1.0 2 21
+ 0.116 7 1 cbr 512 ------- 1 7.0 5.0 2 22
- 0.116 7 1 cbr 512 ------- 1 7.0 5.0 2 22
+ 0.116 9 1 cbr 512 ------- 1 9.0 1.1 2 23
- 0.116 9 1 cbr 512 ------- 1 9.0 1.1 2 23
+ 0.116 11 1 cbr 512 ------- 1 11.0 4.1 2 24
- 0.116 11 1 cbr 512 ------- 1 11.0 4.1 2 24
+ 0.116 12 5 cbr 512 ------- 1 12.0 1.2 2 25
- 0.116 12 5 cbr 512 ------- 1 12.0 1.2 2 25
+ 0.116 14 5 cbr 512 ------- 1 14.1 4.2 2 26
- 0.116 14 5 cbr 512 ------- 1 14.1 4.2 2 26
+ 0.116 16 1 cbr 512 ------- 1 16.0 5.1 2 27
- 0.116 16 1 cbr 512 ------- 1 16.0 5.1 2 27
+ 0.116 17 1 cbr 512 ------- 1 17.1 4.3 2 28
- 0.116 17 1 cbr 512 ------- 1 17.1 4.3 2 28
+ 0.116 19 4 cbr 512 ------- 1 19.0 5.2 2 29
- 0.116 19 4 cbr 512 ------- 1 19.0 5.2 2 29
- 0.116144 4 20 cbr 512 ------- 1 19.0 5.2 0 9
- 0.116144 1 20 cbr 512 ------- 1 11.0 4.1 0 4
- 0.116144 5 20 cbr 512 ------- 1 14.1 4.2 0 6
- 0.118192 1 20 cbr 512 ------- 1 16.0 5.1 0 7
- 0.12024 1 20 cbr 512 ------- 1 17.1 4.3 0 8
r 0.121144 4 20 cbr 512 ------- 1 6.0 1.0 0 1
+ 0.121144 20 1 cbr 512 ------- 1 6.0 1.0 0 1
- 0.121144 20 1 cbr 512 ------- 1 6.0 1.0 0 1
r 0.121144 1 20 cbr 512 ------- 1 7.0 5.0 0 2
+ 0.121144 20 5 cbr 512 ------- 1 7.0 5.0 0 2
- 0.121144 20 5 cbr 512 ------- 1 7.0 5.0 0 2
r 0.121144 5 20 cbr 512 ------- 1 12.0 1.2 0 5
+ 0.121144 20 1 cbr 512 ------- 1 12.0 1.2 0 5
r 0.122096 2 4 cbr 512 ------- 1 2.0 4.0 1 10
r 0.122096 6 4 cbr 512 ------- 1 6.0 1.0 1 11
+ 0.122096 4 20 cbr 512 ------- 1 6.0 1.0 1 11
- 0.122096 4 20 cbr 512 ------- 1 6.0 1.0 1 11
r 0.122096 7 1 cbr 512 ------- 1 7.0 5.0 1 12
+ 0.122096 1 20 cbr 512 ------- 1 7.0 5.0 1 12
r 0.122096 9 1 cbr 512 ------- 1 9.0 1.1 1 13
r 0.122096 11 1 cbr 512 ------- 1 11.0 4.1 1 14
+ 0.122096 1 20 cbr 512 ------- 1 11.0 4.1 1 14
r 0.122096 12 5 cbr 512 ------- 1 12.0 1.2 1 15
+ 0.122096 5 20 cbr 512 ------- 1 12.0 1.2 1 15
- 0.122096 5 20 cbr 512 ------- 1 12.0 1.2 1 15
r 0.122096 14 5 cbr 512 ------- 1 14.1 4.2 1 16
+ 0.122096 5 20 cbr 512 ------- 1 14.1 4.2 1 16
r 0.122096 16 1 cbr 512 ------- 1 16.0 5.1 1 17
+ 0.122096 1 20 cbr 512 ------- 1 16.0 5.1 1 17
r 0.122096 17 1 cbr 512 ------- 1 17.1 4.3 1 18
+ 0.122096 1 20 cbr 512 ------- 1 17.1 4.3 1 18
r 0.122096 19 4 cbr 512 ------- 1 19.0 5.2 1 19
+ 0.122096 4 20 cbr 512 ------- 1 19.0 5.2 1 19
- 0.122288 1 20 cbr 512 ------- 1 7.0 5.0 1 12
r 0.123192 4 20 cbr 512 ------- 1 19.0 5.2 0 9
+ 0.123192 20 5 cbr 512 ------- 1 19.0 5.2 0 9
r 0.123192 1 20 cbr 512 ------- 1 11.0 4.1 0 4
+ 0.123192 20 4 cbr 512 ------- 1 11.0 4.1 0 4
- 0.123192 20 4 cbr 512 ------- 1 11.0 4.1 0 4
r 0.123192 5 20 cbr 512 ------- 1 14.1 4.2 0 6
+ 0.123192 20 4 cbr 512 ------- 1 14.1 4.2 0 6
- 0.123192 20 1 cbr 512 ------- 1 12.0 1.2 0 5
- 0.123192 20 5 cbr 512 ------- 1 19.0 5.2 0 9
+ 0.124 2 4 cbr 512 ------- 1 2.0 4.0 3 30
- 0.124 2 4 cbr 512 ------- 1 2.0 4.0 3 30
+ 0.124 6 4 cbr 512 ------- 1 6.0 1.0 3 31
- 0.124 6 4 cbr 512 ------- 1 6.0 1.0 3 31
+ 0.124 7 1 cbr 512 ------- 1 7.0 5.0 3 32
- 0.124 7 1 cbr 512 ------- 1 7.0 5.0 3 32
+ 0.124 9 1 cbr 512 ------- 1 9.0 1.1 3 33
- 0.124 9 1 cbr 512 ------- 1 9.0 1.1 3 33
+ 0.124 11 1 cbr 512 ------- 1 11.0 4.1 3 34
- 0.124 11 1 cbr 512 ------- 1 11.0 4.1 3 34
+ 0.124 12 5 cbr 512 ------- 1 12.0 1.2 3 35
- 0.124 12 5 cbr 512 ------- 1 12.0 1.2 3 35
+ 0.124 14 5 cbr 512 ------- 1 14.1 4.2 3 36
- 0.124 14 5 cbr 512 ------- 1 14.1 4.2 3 36
+ 0.124 16 1 cbr 512 ------- 1 16.0 5.1 3 37
- 0.124 16 1 cbr 512 ------- 1 16.0 5.1 3 37
+ 0.124 17 1 cbr 512 ------- 1 17.1 4.3 3 38
- 0.124 17 1 cbr 512 ------- 1 17.1 4.3 3 38
+ 0.124 19 4 cbr 512 ------- 1 19.0 5.2 3 39
- 0.124 19 4 cbr 512 ------- 1 19.0 5.2 3 39
- 0.124144 4 20 cbr 512 ------- 1 19.0 5.2 1 19
- 0.124144 5 20 cbr 512 ------- 1 14.1 4.2 1 16
- 0.124336 1 20 cbr 512 ------- 1 11.0 4.1 1 14
r 0.12524 1 20 cbr 512 ------- 1 16.0 5.1 0 7
+ 0.12524 20 5 cbr 512 ------- 1 16.0 5.1 0 7
- 0.12524 20 4 cbr 512 ------- 1 14.1 4.2 0 6
- 0.12524 20 5 cbr 512 ------- 1 16.0 5.1 0 7
- 0.126384 1 20 cbr 512 ------- 1 16.0 5.1 1 17
r 0.127288 1 20 cbr 512 ------- 1 17.1 4.3 0 8
+ 0.127288 20 4 cbr 512 ------- 1 17.1 4.3 0 8
- 0.127288 20 4 cbr 512 ------- 1 17.1 4.3 0 8
r 0.128192 20 1 cbr 512 ------- 1 6.0 1.0 0 1
r 0.128192 20 5 cbr 512 ------- 1 7.0 5.0 0 2
- 0.128432 1 20 cbr 512 ------- 1 17.1 4.3 1 18
r 0.129144 4 20 cbr 512 ------- 1 6.0 1.0 1 11
+ 0.129144 20 1 cbr 512 ------- 1 6.0 1.0 1 11
- 0.129144 20 1 cbr 512 ------- 1 6.0 1.0 1 11
r 0.129144 5 20 cbr 512 ------- 1 12.0 1.2 1 15
+ 0.129144 20 1 cbr 512 ------- 1 12.0 1.2 1 15
r 0.129336 1 20 cbr 512 ------- 1 7.0 5.0 1 12
+ 0.129336 20 5 cbr 512 ------- 1 7.0 5.0 1 12
- 0.129336 20 5 cbr 512 ------- 1 7.0 5.0 1 12
r 0.130096 2 4 cbr 512 ------- 1 2.0 4.0 2 20
r 0.130096 6 4 cbr 512 ------- 1 6.0 1.0 2 21
+ 0.130096 4 20 cbr 512 ------- 1 6.0 1.0 2 21
- 0.130096 4 20 cbr 512 ------- 1 6.0 1.0 2 21
r 0.130096 7 1 cbr 512 ------- 1 7.0 5.0 2 22
+ 0.130096 1 20 cbr 512 ------- 1 7.0 5.0 2 22
r 0.130096 9 1 cbr 512 ------- 1 9.0 1.1 2 23
r 0.130096 11 1 cbr 512 ------- 1 11.0 4.1 2 24
+ 0.130096 1 20 cbr 512 ------- 1 11.0 4.1 2 24
r 0.130096 12 5 cbr 512 ------- 1 12.0 1.2 2 25
+ 0.130096 5 20 cbr 512 ------- 1 12.0 1.2 2 25
- 0.130096 5 20 cbr 512 ------- 1 12.0 1.2 2 25
r 0.130096 14 5 cbr 512 ------- 1 14.1 4.2 2 26
+ 0.130096 5 20 cbr 512 ------- 1 14.1 4.2 2 26
r 0.130096 16 1 cbr 512 ------- 1 16.0 5.1 2 27
+ 0.130096 1 20 cbr 512 ------- 1 16.0 5.1 2 27
r 0.130096 17 1 cbr 512 ------- 1 17.1 4.3 2 28
+ 0.130096 1 20 cbr 512 ------- 1 17.1 4.3 2 28
r 0.130096 19 4 cbr 512 ------- 1 19.0 5.2 2 29
+ 0.130096 4 20 cbr 512 ------- 1 19.0 5.2 2 29
r 0.13024 20 4 cbr 512 ------- 1 11.0 4.1 0 4
r 0.13024 20 1 cbr 512 ------- 1 12.0 1.2 0 5
r 0.13024 20 5 cbr 512 ------- 1 19.0 5.2 0 9
- 0.13048 1 20 cbr 512 ------- 1 7.0 5.0 2 22
r 0.131192 4 20 cbr 512 ------- 1 19.0 5.2 1 19
+ 0.131192 20 5 cbr 512 ------- 1 19.0 5.2 1 19
r 0.131192 5 20 cbr 512 ------- 1 14.1 4.2 1 16
+ 0.131192 20 4 cbr 512 ------- 1 14.1 4.2 1 16
- 0.131192 20 4 cbr 512 ------- 1 14.1 4.2 1 16
- 0.131192 20 1 cbr 512 ------- 1 12.0 1.2 1 15
r 0.131384 1 20 cbr 512 ------- 1 11.0 4.1 1 14
+ 0.131384 20 4 cbr 512 ------- 1 11.0 4.1 1 14
- 0.131384 20 5 cbr 512 ------- 1 19.0 5.2 1 19
+ 0.132 2 4 cbr 512 ------- 1 2.0 4.0 4 40
- 0.132 2 4 cbr 512 ------- 1 2.0 4.0 4 40
+ 0.132 6 4 cbr 512 ------- 1 6.0 1.0 4 41
- 0.132 6 4 cbr 512 ------- 1 6.0 1.0 4 41
+ 0.132 7 1 cbr 512 ------- 1 7.0 5.0 4 42
- 0.132 7 1 cbr 512 ------- 1 7.0 5.0 4 42
+ 0.132 9 1 cbr 512 ------- 1 9.0 1.1 4 43
- 0.132 9 1 cbr 512 ------- 1 9.0 1.1 4 43
+ 0.132 11 1 cbr 512 ------- 1 11.0 4.1 4 44
- 0.132 11 1 cbr 512 ------- 1 11.0 4.1 4 44
+ 0.132 12 5 cbr 512 ------- 1 12.0 1.2 4 45
- 0.132 12 5 cbr 512 ------- 1 12.0 1.2 4 45
+ 0.132 14 5 cbr 512 ------- 1 14.1 4.2 4 46
- 0.132 14 5 cbr 512 ------- 1 14.1 4.2 4 46
+ 0.132 16 1 cbr 512 ------- 1 16.0 5.1 4 47
- 0.132 16 1 cbr 512 ------- 1 16.0 5.1 4 47
+ 0.132 17 1 cbr 512 ------- 1 17.1 4.3 4 48
- 0.132 17 1 cbr 512 ------- 1 17.1 4.3 4 48
+ 0.132 19 4 cbr 512 ------- 1 19.0 5.2 4 49
- 0.132 19 4 cbr 512 ------- 1 19.0 5.2 4 49
- 0.132144 4 20 cbr 512 ------- 1 19.0 5.2 2 29
- 0.132144 5 20 cbr 512 ------- 1 14.1 4.2 2 26
r 0.132288 20 4 cbr 512 ------- 1 14.1 4.2 0 6
r 0.132288 20 5 cbr 512 ------- 1 16.0 5.1 0 7
- 0.132528 1 20 cbr 512 ------- 1 11.0 4.1 2 24
- 0.13324 20 4 cbr 512 ------- 1 11.0 4.1 1 14
r 0.133432 1 20 cbr 512 ------- 1 16.0 5.1 1 17
+ 0.133432 20 5 cbr 512 ------- 1 16.0 5.1 1 17
- 0.133432 20 5 cbr 512 ------- 1 16.0 5.1 1 17
r 0.134336 20 4 cbr 512 ------- 1 17.1 4.3 0 8
- 0.134576 1 20 cbr 512 ------- 1 16.0 5.1 2 27
r 0.13548 1 20 cbr 512 ------- 1 17.1 4.3 1 18
+ 0.13548 20 4 cbr 512 ------- 1 17.1 4.3 1 18
- 0.13548 20 4 cbr 512 ------- 1 17.1 4.3 1 18
r 0.136192 20 1 cbr 512 ------- 1 6.0 1.0 1 11
r 0.136384 20 5 cbr 512 ------- 1 7.0 5.0 1 12
- 0.136624 1 20 cbr 512 ------- 1 17.1 4.3 2 28
r 0.137144 4 20 cbr 512 ------- 1 6.0 1.0 2 21
+ 0.137144 20 1 cbr 512 ------- 1 6.0 1.0 2 21
- 0.137144 20 1 cbr 512 ------- 1 6.0 1.0 2 21
r 0.137144 5 20 cbr 512 ------- 1 12.0 1.2 2 25
+ 0.137144 20 1 cbr 512 ------- 1 12.0 1.2 2 25
r 0.137528 1 20 cbr 512 ------- 1 7.0 5.0 2 22
+ 0.137528 20 5 cbr 512 ------- 1 7.0 5.0 2 22
- 0.137528 20 5 cbr 512 ------- 1 7.0 5.0 2 22
r 0.138096 2 4 cbr 512 ------- 1 2.0 4.0 3 30
r 0.138096 6 4 cbr 512 ------- 1 6.0 1.0 3 31
+ 0.138096 4 20 cbr 512 ------- 1 6.0 1.0 3 31
- 0.138096 4 20 cbr 512 ------- 1 6.0 1.0 3 31
r 0.138096 7 1 cbr 512 ------- 1 7.0 5.0 3 32
+ 0.138096 1 20 cbr 512 ------- 1 7.0 5.0 3 32
r 0.138096 9 1 cbr 512 ------- 1 9.0 1.1 3 33
r 0.138096 11 1 cbr 512 ------- 1 11.0 4.1 3 34
+ 0.138096 1 20 cbr 512 ------- 1 11.0 4.1 3 34
r 0.138096 12 5 cbr 512 ------- 1 12.0 1.2 3 35
+ 0.138096 5 20 cbr 512 ------- 1 12.0 1.2 3 35
- 0.138096 5 20 cbr 512 ------- 1 12.0 1.2 3 35
r 0.138096 14 5 cbr 512 ------- 1 14.1 4.2 3 36
+ 0.138096 5 20 cbr 512 ------- 1 14.1 4.2 3 36
r 0.138096 16 1 cbr 512 ------- 1 16.0 5.1 3 37
+ 0.138096 1 20 cbr 512 ------- 1 16.0 5.1 3 37
r 0.138096 17 1 cbr 512 ------- 1 17.1 4.3 3 38
+ 0.138096 1 20 cbr 512 ------- 1 17.1 4.3 3 38
r 0.138096 19 4 cbr 512 ------- 1 19.0 5.2 3 39
+ 0.138096 4 20 cbr 512 ------- 1 19.0 5.2 3 39
r 0.13824 20 4 cbr 512 ------- 1 14.1 4.2 1 16
r 0.13824 20 1 cbr 512 ------- 1 12.0 1.2 1 15
r 0.138432 20 5 cbr 512 ------- 1 19.0 5.2 1 19
- 0.138672 1 20 cbr 512 ------- 1 7.0 5.0 3 32
r 0.139192 4 20 cbr 512 ------- 1 19.0 5.2 2 29
+ 0.139192 20 5 cbr 512 ------- 1 19.0 5.2 2 29
r 0.139192 5 20 cbr 512 ------- 1 14.1 4.2 2 26
+ 0.139192 20 4 cbr 512 ------- 1 14.1 4.2 2 26
- 0.139192 20 4 cbr 512 ------- 1 14.1 4.2 2 26
- 0.139192 20 1 cbr 512 ------- 1 12.0 1.2 2 25
r 0.139576 1 20 cbr 512 ------- 1 11.0 4.1 2 24
+ 0.139576 20 4 cbr 512 ------- 1 11.0 4.1 2 24
- 0.139576 20 5 cbr 512 ------- 1 19.0 5.2 2 29
+ 0.14 2 4 cbr 512 ------- 1 2.0 4.0 5 50
- 0.14 2 4 cbr 512 ------- 1 2.0 4.0 5 50
+ 0.14 6 4 cbr 512 ------- 1 6.0 1.0 5 51
- 0.14 6 4 cbr 512 ------- 1 6.0 1.0 5 51
+ 0.14 7 1 cbr 512 ------- 1 7.0 5.0 5 52
- 0.14 7 1 cbr 512 ------- 1 7.0 5.0 5 52
+ 0.14 9 1 cbr 512 ------- 1 9.0 1.1 5 53
- 0.14 9 1 cbr 512 ------- 1 9.0 1.1 5 53
+ 0.14 11 1 cbr 512 ------- 1 11.0 4.1 5 54
- 0.14 11 1 cbr 512 ------- 1 11.0 4.1 5 54
+ 0.14 12 5 cbr 512 ------- 1 12.0 1.2 5 55
- 0.14 12 5 cbr 512 ------- 1 12.0 1.2 5 55
+ 0.14 14 5 cbr 512 ------- 1 14.1 4.2 5 56
- 0.14 14 5 cbr 512 ------- 1 14.1 4.2 5 56
+ 0.14 16 1 cbr 512 ------- 1 16.0 5.1 5 57
- 0.14 16 1 cbr 512 ------- 1 16.0 5.1 5 57
+ 0.14 17 1 cbr 512 ------- 1 17.1 4.3 5 58
- 0.14 17 1 cbr 512 ------- 1 17.1 4.3 5 58
+ 0.14 19 4 cbr 512 ------- 1 19.0 5.2 5 59
- 0.14 19 4 cbr 512 ------- 1 19.0 5.2 5 59
- 0.140144 4 20 cbr 512 ------- 1 19.0 5.2 3 39
- 0.140144 5 20 cbr 512 ------- 1 14.1 4.2 3 36
r 0.140288 20 4 cbr 512 ------- 1 11.0 4.1 1 14
r 0.14048 20 5 cbr 512 ------- 1 16.0 5.1 1 17
- 0.14072 1 20 cbr 512 ------- 1 11.0 4.1 3 34
- 0.14124 20 4 cbr 512 ------- 1 11.0 4.1 2 24
r 0.141624 1 20 cbr 512 ------- 1 16.0 5.1 2 27
+ 0.141624 20 5 cbr 512 ------- 1 16.0 5.1 2 27
- 0.141624 20 5 cbr 512 ------- 1 16.0 5.1 2 27
r 0.142528 20 4 cbr 512 ------- 1 17.1 4.3 1 18
- 0.142768 1 20 cbr 512 ------- 1 16.0 5.1 3 37
r 0.143672 1 20 cbr 512 ------- 1 17.1 4.3 2 28
+ 0.143672 20 4 cbr 512 ------- 1 17.1 4.3 2 28
- 0.143672 20 4 cbr 512 ------- 1 17.1 4.3 2 28
r 0.144192 20 1 cbr 512 ------- 1 6.0 1.0 2 21
r 0.144576 20 5 cbr 512 ------- 1 7.0 5.0 2 22
- 0.144816 1 20 cbr 512 ------- 1 17.1 4.3 3 38
r 0.145144 4 20 cbr 512 ------- 1 6.0 1.0 3 31
+ 0.145144 20 1 cbr 512 ------- 1 6.0 1.0 3 31
- 0.145144 20 1 cbr 512 ------- 1 6.0 1.0 3 31
r 0.145144 5 20 cbr 512 ------- 1 12.0 1.2 3 35
+ 0.145144 20 1 cbr 512 ------- 1 12.0 1.2 3 35
r 0.14572 1 20 cbr 512 ------- 1 7.0 5.0 3 32
+ 0.14572 20 5 cbr 512 ------- 1 7.0 5.0 3 32
- 0.14572 20 5 cbr 512 ------- 1 7.0 5.0 3 32
r 0.146096 2 4 cbr 512 ------- 1 2.0 4.0 4 40
r 0.146096 6 4 cbr 512 ------- 1 6.0 1.0 4 41
+ 0.146096 4 20 cbr 512 ------- 1 6.0 1.0 4 41
- 0.146096 4 20 cbr 512 ------- 1 6.0 1.0 4 41
r 0.146096 7 1 cbr 512 ------- 1 7.0 5.0 4 42
+ 0.146096 1 20 cbr 512 ------- 1 7.0 5.0 4 42
r 0.146096 9 1 cbr 512 ------- 1 9.0 1.1 4 43
r 0.146096 11 1 cbr 512 ------- 1 11.0 4.1 4 44
+ 0.146096 1 20 cbr 512 ------- 1 11.0 4.1 4 44
r 0.146096 12 5 cbr 512 ------- 1 12.0 1.2 4 45
+ 0.146096 5 20 cbr 512 ------- 1 12.0 1.2 4 45
- 0.146096 5 20 cbr 512 ------- 1 12.0 1.2 4 45
r 0.146096 14 5 cbr 512 ------- 1 14.1 4.2 4 46
+ 0.146096 5 20 cbr 512 ------- 1 14.1 4.2 4 46
r 0.146096 16 1 cbr 512 ------- 1 16.0 5.1 4 47
+ 0.146096 1 20 cbr 512 ------- 1 16.0 5.1 4 47
r 0.146096 17 1 cbr 512 ------- 1 17.1 4.3 4 48
+ 0.146096 1 20 cbr 512 ------- 1 17.1 4.3 4 48
r 0.146096 19 4 cbr 512 ------- 1 19.0 5.2 4 49
+ 0.146096 4 20 cbr 512 ------- 1 19.0 5.2 4 49
r 0.14624 20 4 cbr 512 ------- 1 14.1 4.2 2 26
r 0.14624 20 1 cbr 512 ------- 1 12.0 1.2 2 25
r 0.146624 20 5 cbr 512 ------- 1 19.0 5.2 2 29
- 0.146864 1 20 cbr 512 ------- 1 7.0 5.0 4 42
r 0.147192 4 20 cbr 512 ------- 1 19.0 5.2 3 39
+ 0.147192 20 5 cbr 512 ------- 1 19.0 5.2 3 39
r 0.147192 5 20 cbr 512 ------- 1 14.1 4.2 3 36
+ 0.147192 20 4 cbr 512 ------- 1 14.1 4.2 3 36
- 0.147192 20 4 cbr 512 ------- 1 14.1 4.2 3 36
- 0.147192 20 1 cbr 512 ------- 1 12.0 1.2 3 35
r 0.147768 1 20 cbr 512 ------- 1 11.0 4.1 3 34
+ 0.147768 20 4 cbr 512 ------- 1 11.0 4.1 3 34
- 0.147768 20 5 cbr 512 ------- 1 19.0 5.2 3 39
+ 0.148 2 4 cbr 512 ------- 1 2.0 4.0 6 60
- 0.148 2 4 cbr 512 ------- 1 2.0 4.0 6 60
+ 0.148 6 4 cbr 512 ------- 1 6.0 1.0 6 61
- 0.148 6 4 cbr 512 ------- 1 6.0 1.0 6 61
+ 0.148 7 1 cbr 512 ------- 1 7.0 5.0 6 62
- 0.148 7 1 cbr 512 ------- 1 7.0 5.0 6 62
+ 0.148 9 1 cbr 512 ------- 1 9.0 1.1 6 63
- 0.148 9 1 cbr 512 ------- 1 9.0 1.1 6 63
+ 0.148 11 1 cbr 512 ------- 1 11.0 4.1 6 64
- 0.148 11 1 cbr 512 ------- 1 11.0 4.1 6 64
+ 0.148 12 5 cbr 512 ------- 1 12.0 1.2 6 65
- 0.148 12 5 cbr 512 ------- 1 12.0 1.2 6 65
+ 0.148 14 5 cbr 512 ------- 1 14.1 4.2 6 66
- 0.148 14 5 cbr 512 ------- 1 14.1 4.2 6 66
+ 0.148 16 1 cbr 512 ------- 1 16.0 5.1 6 67
- 0.148 16 1 cbr 512 ------- 1 16.0 5.1 6 67
+ 0.148 17 1 cbr 512 ------- 1 17.1 4.3 6 68
- 0.148 17 1 cbr 512 ------- 1 17.1 4.3 6 68
+ 0.148 19 4 cbr 512 ------- 1 19.0 5.2 6 69
- 0.148 19 4 cbr 512 ------- 1 19.0 5.2 6 69
- 0.148144 4 20 cbr 512 ------- 1 19.0 5.2 4 49
- 0.148144 5 20 cbr 512 ------- 1 14.1 4.2 4 46
r 0.148288 20 4 cbr 512 ------- 1 11.0 4.1 2 24
r 0.148672 20 5 cbr 512 ------- 1 16.0 5.1 2 27
- 0.148912 1 20 cbr 512 ------- 1 11.0 4.1 4 44
- 0.14924 20 4 cbr 512 ------- 1 11.0 4.1 3 34
r 0.149816 1 20 cbr 512 ------- 1 16.0 5.1 3 37
+ 0.149816 20 5 cbr 512 ------- 1 16.0 5.1 3 37
- 0.149816 20 5 cbr 512 ------- 1 16.0 5.1 3 37
r 0.15072 20 4 cbr 512 ------- 1 17.1 4.3 2 28
- 0.15096 1 20 cbr 512 ------- 1 16.0 5.1 4 47
r 0.151864 1 20 cbr 512 ------- 1 17.1 4.3 3 38
+ 0.151864 20 4 cbr 512 ------- 1 17.1 4.3 3 38
- 0.151864 20 4 cbr 512 ------- 1 17.1 4.3 3 38
r 0.152192 20 1 cbr 512 ------- 1 6.0 1.0 3 31
r 0.152768 20 5 cbr 512 ------- 1 7.0 5.0 3 32
- 0.153008 1 20 cbr 512 ------- 1 17.1 4.3 4 48
r 0.153144 4 20 cbr 512 ------- 1 6.0 1.0 4 41
+ 0.153144 20 1 cbr 512 ------- 1 6.0 1.0 4 41
- 0.153144 20 1 cbr 512 ------- 1 6.0 1.0 4 41
r 0.153144 5 20 cbr 512 ------- 1 12.0 1.2 4 45
+ 0.153144 20 1 cbr 512 ------- 1 12.0 1.2 4 45
r 0.153912 1 20 cbr 512 ------- 1 7.0 5.0 4 42
+ 0.153912 20 5 cbr 512 ------- 1 7.0 5.0 4 42
- 0.153912 20 5 cbr 512 ------- 1 7.0 5.0 4 42
r 0.154096 2 4 cbr 512 ------- 1 2.0 4.0 5 50
r 0.154096 6 4 cbr 512 ------- 1 6.0 1.0 5 51
+ 0.154096 4 20 cbr 512 ------- 1 6.0 1.0 5 51
- 0.154096 4 20 cbr 512 ------- 1 6.0 1.0 5 51
r 0.154096 7 1 cbr 512 ------- 1 7.0 5.0 5 52
+ 0.154096 1 20 cbr 512 ------- 1 7.0 5.0 5 52
r 0.154096 9 1 cbr 512 ------- 1 9.0 1.1 5 53
r 0.154096 11 1 cbr 512 ------- 1 11.0 4.1 5 54
+ 0.154096 1 20 cbr 512 ------- 1 11.0 4.1 5 54
r 0.154096 12 5 cbr 512 ------- 1 12.0 1.2 5 55
+ 0.154096 5 20 cbr 512 ------- 1 12.0 1.2 5 55
- 0.154096 5 20 cbr 512 ------- 1 12.0 1.2 5 55
r 0.154096 14 5 cbr 512 ------- 1 14.1 4.2 5 56
+ 0.154096 5 20 cbr 512 ------- 1 14.1 4.2 5 56
r 0.154096 16 1 cbr 512 ------- 1 16.0 5.1 5 57
+ 0.154096 1 20 cbr 512 ------- 1 16.0 5.1 5 57
r 0.154096 17 1 cbr 512 ------- 1 17.1 4.3 5 58
+ 0.154096 1 20 cbr 512 ------- 1 17.1 4.3 5 58
r 0.154096 19 4 cbr 512 ------- 1 19.0 5.2 5 59
+ 0.154096 4 20 cbr 512 ------- 1 19.0 5.2 5 59
r 0.15424 20 4 cbr 512 ------- 1 14.1 4.2 3 36
r 0.15424 20 1 cbr 512 ------- 1 12.0 1.2 3 35
r 0.154816 20 5 cbr 512 ------- 1 19.0 5.2 3 39
- 0.155056 1 20 cbr 512 ------- 1 7.0 5.0 5 52
r 0.155192 4 20 cbr 512 ------- 1 19.0 5.2 4 49
+ 0.155192 20 5 cbr 512 ------- 1 19.0 5.2 4 49
r 0.155192 5 20 cbr 512 ------- 1 14.1 4.2 4 46
+ 0.155192 20 4 cbr 512 ------- 1 14.1 4.2 4 46
- 0.155192 20 4 cbr 512 ------- 1 14.1 4.2 4 46
- 0.155192 20 1 cbr 512 ------- 1 12.0 1.2 4 45
r 0.15596 1 20 cbr 512 ------- 1 11.0 4.1 4 44
+ 0.15596 20 4 cbr 512 ------- 1 11.0 4.1 4 44
- 0.15596 20 5 cbr 512 ------- 1 19.0 5.2 4 49
+ 0.156 2 4 cbr 512 ------- 1 2.0 4.0 7 70
- 0.156 2 4 cbr 512 ------- 1 2.0 4.0 7 70
+ 0.156 6 4 cbr 512 ------- 1 6.0 1.0 7 71
- 0.156 6 4 cbr 512 ------- 1 6.0 1.0 7 71
+ 0.156 7 1 cbr 512 ------- 1 7.0 5.0 7 72
- 0.156 7 1 cbr 512 ------- 1 7.0 5.0 7 72
+ 0.156 9 1 cbr 512 ------- 1 9.0 1.1 7 73
- 0.156 9 1 cbr 512 ------- 1 9.0 1.1 7 73
+ 0.156 11 1 cbr 512 ------- 1 11.0 4.1 7 74
- 0.156 11 1 cbr 512 ------- 1 11.0 4.1 7 74
+ 0.156 12 5 cbr 512 ------- 1 12.0 1.2 7 75
- 0.156 12 5 cbr 512 ------- 1 12.0 1.2 7 75
+ 0.156 14 5 cbr 512 ------- 1 14.1 4.2 7 76
- 0.156 14 5 cbr 512 ------- 1 14.1 4.2 7 76
+ 0.156 16 1 cbr 512 ------- 1 16.0 5.1 7 77
- 0.156 16 1 cbr 512 ------- 1 16.0 5.1 7 77
+ 0.156 17 1 cbr 512 ------- 1 17.1 4.3 7 78
- 0.156 17 1 cbr 512 ------- 1 17.1 4.3 7 78
+ 0.156 19 4 cbr 512 ------- 1 19.0 5.2 7 79
- 0.156 19 4 cbr 512 ------- 1 19.0 5.2 7 79
- 0.156144 4 20 cbr 512 ------- 1 19.0 5.2 5 59
- 0.156144 5 20 cbr 512 ------- 1 14.1 4.2 5 56
r 0.156288 20 4 cbr 512 ------- 1 11.0 4.1 3 34
r 0.156864 20 5 cbr 512 ------- 1 16.0 5.1 3 37
- 0.157104 1 20 cbr 512 ------- 1 11.0 4.1 5 54
- 0.15724 20 4 cbr 512 ------- 1 11.0 4.1 4 44
r 0.158008 1 20 cbr 512 ------- 1 16.0 5.1 4 47
+ 0.158008 20 5 cbr 512 ------- 1 16.0 5.1 4 47
- 0.158008 20 5 cbr 512 ------- 1 16.0 5.1 4 47
r 0.158912 20 4 cbr 512 ------- 1 17.1 4.3 3 38
- 0.159152 1 20 cbr 512 ------- 1 16.0 5.1 5 57
r 0.160056 1 20 cbr 512 ------- 1 17.1 4.3 4 48
+ 0.160056 20 4 cbr 512 ------- 1 17.1 4.3 4 48
- 0.160056 20 4 cbr 512 ------- 1 17.1 4.3 4 48
r 0.160192 20 1 cbr 512 ------- 1 6.0 1.0 4 41
r 0.16096 20 5 cbr 512 ------- 1 7.0 5.0 4 42
r 0.161144 4 20 cbr 512 ------- 1 6.0 1.0 5 51
+ 0.161144 20 1 cbr 512 ------- 1 6.0 1.0 5 51
- 0.161144 20 1 cbr 512 ------- 1 6.0 1.0 5 51
r 0.161144 5 20 cbr 512 ------- 1 12.0 1.2 5 55
+ 0.161144 20 1 cbr 512 ------- 1 12.0 1.2 5 55
- 0.1612 1 20 cbr 512 ------- 1 17.1 4.3 5 58
r 0.162096 2 4 cbr 512 ------- 1 2.0 4.0 6 60
r 0.162096 6 4 cbr 512 ------- 1 6.0 1.0 6 61
+ 0.162096 4 20 cbr 512 ------- 1 6.0 1.0 6 61
- 0.162096 4 20 cbr 512 ------- 1 6.0 1.0 6 61
r 0.162096 7 1 cbr 512 ------- 1 7.0 5.0 6 62
+ 0.162096 1 20 cbr 512 ------- 1 7.0 5.0 6 62
r 0.162096 9 1 cbr 512 ------- 1 9.0 1.1 6 63
r 0.162096 11 1 cbr 512 ------- 1 11.0 4.1 6 64
+ 0.162096 1 20 cbr 512 ------- 1 11.0 4.1 6 64
r 0.162096 12 5 cbr 512 ------- 1 12.0 1.2 6 65
+ 0.162096 5 20 cbr 512 ------- 1 12.0 1.2 6 65
- 0.162096 5 20 cbr 512 ------- 1 12.0 1.2 6 65
r 0.162096 14 5 cbr 512 ------- 1 14.1 4.2 6 66
+ 0.162096 5 20 cbr 512 ------- 1 14.1 4.2 6 66
r 0.162096 16 1 cbr 512 ------- 1 16.0 5.1 6 67
+ 0.162096 1 20 cbr 512 ------- 1 16.0 5.1 6 67
r 0.162096 17 1 cbr 512 ------- 1 17.1 4.3 6 68
+ 0.162096 1 20 cbr 512 ------- 1 17.1 4.3 6 68
r 0.162096 19 4 cbr 512 ------- 1 19.0 5.2 6 69
+ 0.162096 4 20 cbr 512 ------- 1 19.0 5.2 6 69
r 0.162104 1 20 cbr 512 ------- 1 7.0 5.0 5 52
+ 0.162104 20 5 cbr 512 ------- 1 7.0 5.0 5 52
- 0.162104 20 5 cbr 512 ------- 1 7.0 5.0 5 52
r 0.16224 20 4 cbr 512 ------- 1 14.1 4.2 4 46
r 0.16224 20 1 cbr 512 ------- 1 12.0 1.2 4 45
r 0.163008 20 5 cbr 512 ------- 1 19.0 5.2 4 49
r 0.163192 4 20 cbr 512 ------- 1 19.0 5.2 5 59
+ 0.163192 20 5 cbr 512 ------- 1 19.0 5.2 5 59
r 0.163192 5 20 cbr 512 ------- 1 14.1 4.2 5 56
+ 0.163192 20 4 cbr 512 ------- 1 14.1 4.2 5 56
- 0.163192 20 4 cbr 512 ------- 1 14.1 4.2 5 56
- 0.163192 20 1 cbr 512 ------- 1 12.0 1.2 5 55
- 0.163248 1 20 cbr 512 ------- 1 7.0 5.0 6 62
+ 0.164 2 4 cbr 512 ------- 1 2.0 4.0 8 80
- 0.164 2 4 cbr 512 ------- 1 2.0 4.0 8 80
+ 0.164 6 4 cbr 512 ------- 1 6.0 1.0 8 81
- 0.164 6 4 cbr 512 ------- 1 6.0 1.0 8 81
+ 0.164 7 1 cbr 512 ------- 1 7.0 5.0 8 82
- 0.164 7 1 cbr 512 ------- 1 7.0 5.0 8 82
+ 0.164 9 1 cbr 512 ------- 1 9.0 1.1 8 83
- 0.164 9 1 cbr 512 ------- 1 9.0 1.1 8 83
+ 0.164 11 1 cbr 512 ------- 1 11.0 4.1 8 84
- 0.164 11 1 cbr 512 ------- 1 11.0 4.1 8 84
+ 0.164 12 5 cbr 512 ------- 1 12.0 1.2 8 85
- 0.164 12 5 cbr 512 ------- 1 12.0 1.2 8 85
+ 0.164 14 5 cbr 512 ------- 1 14.1 4.2 8 86
- 0.164 14 5 cbr 512 ------- 1 14.1 4.2 8 86
+ 0.164 16 1 cbr 512 ------- 1 16.0 5.1 8 87
- 0.164 16 1 cbr 512 ------- 1 16.0 5.1 8 87
+ 0.164 17 1 cbr 512 ------- 1 17.1 4.3 8 88
- 0.164 17 1 cbr 512 ------- 1 17.1 4.3 8 88
+ 0.164 19 4 cbr 512 ------- 1 19.0 5.2 8 89
- 0.164 19 4 cbr 512 ------- 1 19.0 5.2 8 89
- 0.164144 4 20 cbr 512 ------- 1 19.0 5.2 6 69
- 0.164144 5 20 cbr 512 ------- 1 14.1 4.2 6 66
r 0.164152 1 20 cbr 512 ------- 1 11.0 4.1 5 54
+ 0.164152 20 4 cbr 512 ------- 1 11.0 4.1 5 54
- 0.164152 20 5 cbr 512 ------- 1 19.0 5.2 5 59
r 0.164288 20 4 cbr 512 ------- 1 11.0 4.1 4 44
r 0.165056 20 5 cbr 512 ------- 1 16.0 5.1 4 47
- 0.16524 20 4 cbr 512 ------- 1 11.0 4.1 5 54
- 0.165296 1 20 cbr 512 ------- 1 11.0 4.1 6 64
r 0.1662 1 20 cbr 512 ------- 1 16.0 5.1 5 57
+ 0.1662 20 5 cbr 512 ------- 1 16.0 5.1 5 57
- 0.1662 20 5 cbr 512 ------- 1 16.0 5.1 5 57
r 0.167104 20 4 cbr 512 ------- 1 17.1 4.3 4 48
- 0.167344 1 20 cbr 512 ------- 1 16.0 5.1 6 67
r 0.168192 20 1 cbr 512 ------- 1 6.0 1.0 5 51
r 0.168248 1 20 cbr 512 ------- 1 17.1 4.3 5 58
+ 0.168248 20 4 cbr 512 ------- 1 17.1 4.3 5 58
- 0.168248 20 4 cbr 512 ------- 1 17.1 4.3 5 58
r 0.169144 4 20 cbr 512 ------- 1 6.0 1.0 6 61
+ 0.169144 20 1 cbr 512 ------- 1 6.0 1.0 6 61
- 0.169144 20 1 cbr 512 ------- 1 6.0 1.0 6 61
r 0.169144 5 20 cbr 512 ------- 1 12.0 1.2 6 65
+ 0.169144 20 1 cbr 512 ------- 1 12.0 1.2 6 65
r 0.169152 20 5 cbr 512 ------- 1 7.0 5.0 5 52
- 0.169392 1 20 cbr 512 ------- 1 17.1 4.3 6 68
r 0.170096 2 4 cbr 512 ------- 1 2.0 4.0 7 70
r 0.170096 6 4 cbr 512 ------- 1 6.0 1.0 7 71
+ 0.170096 4 20 cbr 512 ------- 1 6.0 1.0 7 71
- 0.170096 4 20 cbr 512 ------- 1 6.0 1.0 7 71
r 0.170096 7 1 cbr 512 ------- 1 7.0 5.0 7 72
+ 0.170096 1 20 cbr 512 ------- 1 7.0 5.0 7 72
r 0.170096 9 1 cbr 512 ------- 1 9.0 1.1 7 73
r 0.170096 11 1 cbr 512 ------- 1 11.0 4.1 7 74
+ 0.170096 1 20 cbr 512 ------- 1 11.0 4.1 7 74
r 0.170096 12 5 cbr 512 ------- 1 12.0 1.2 7 75
+ 0.170096 5 20 cbr 512 ------- 1 12.0 1.2 7 75
- 0.170096 5 20 cbr 512 ------- 1 12.0 1.2 7 75
r 0.170096 14 5 cbr 512 ------- 1 14.1 4.2 7 76
+ 0.170096 5 20 cbr 512 ------- 1 14.1 4.2 7 76
r 0.170096 16 1 cbr 512 ------- 1 16.0 5.1 7 77
+ 0.170096 1 20 cbr 512 ------- 1 16.0 5.1 7 77
r 0.170096 17 1 cbr 512 ------- 1 17.1 4.3 7 78
+ 0.170096 1 20 cbr 512 ------- 1 17.1 4.3 7 78
r 0.170096 19 4 cbr 512 ------- 1 19.0 5.2 7 79
+ 0.170096 4 20 cbr 512 ------- 1 19.0 5.2 7 79
r 0.17024 20 4 cbr 512 ------- 1 14.1 4.2 5 56
r 0.17024 20 1 cbr 512 ------- 1 12.0 1.2 5 55
r 0.170296 1 20 cbr 512 ------- 1 7.0 5.0 6 62
+ 0.170296 20 5 cbr 512 ------- 1 7.0 5.0 6 62
- 0.170296 20 5 cbr 512 ------- 1 7.0 5.0 6 62
r 0.171192 4 20 cbr 512 ------- 1 19.0 5.2 6 69
+ 0.171192 20 5 cbr 512 ------- 1 19.0 5.2 6 69
r 0.171192 5 20 cbr 512 ------- 1 14.1 4.2 6 66
+ 0.171192 20 4 cbr 512 ------- 1 14.1 4.2 6 66
- 0.171192 20 4 cbr 512 ------- 1 14.1 4.2 6 66
- 0.171192 20 1 cbr 512 ------- 1 12.0 1.2 6 65
r 0.1712 20 5 cbr 512 ------- 1 19.0 5.2 5 59
- 0.17144 1 20 cbr 512 ------- 1 7.0 5.0 7 72
+ 0.172 2 4 cbr 512 ------- 1 2.0 4.0 9 90
- 0.172 2 4 cbr 512 ------- 1 2.0 4.0 9 90
+ 0.172 6 4 cbr 512 ------- 1 6.0 1.0 9 91
- 0.172 6 4 cbr 512 ------- 1 6.0 1.0 9 91
+ 0.172 7 1 cbr 512 ------- 1 7.0 5.0 9 92
- 0.172 7 1 cbr 512 ------- 1 7.0 5.0 9 92
+ 0.172 9 1 cbr 512 ------- 1 9.0 1.1 9 93
- 0.172 9 1 cbr 512 ------- 1 9.0 1.1 9 93
+ 0.172 11 1 cbr 512 ------- 1 11.0 4.1 9 94
- 0.172 11 1 cbr 512 ------- 1 11.0 4.1 9 94
+ 0.172 12 5 cbr 512 ------- 1 12.0 1.2 9 95
- 0.172 12 5 cbr 512 ------- 1 12.0 1.2 9 95
+ 0.172 14 5 cbr 512 ------- 1 14.1 4.2 9 96
- 0.172 14 5 cbr 512 ------- 1 14.1 4.2 9 96
+ 0.172 16 1 cbr 512 ------- 1 16.0 5.1 9 97
- 0.172 16 1 cbr 512 ------- 1 16.0 5.1 9 97
+ 0.172 17 1 cbr 512 ------- 1 17.1 4.3 9 98
- 0.172 17 1 cbr 512 ------- 1 17.1 4.3 9 98
+ 0.172 19 4 cbr 512 ------- 1 19.0 5.2 9 99
- 0.172 19 4 cbr 512 ------- 1 19.0 5.2 9 99
- 0.172144 4 20 cbr 512 ------- 1 19.0 5.2 7 79
- 0.172144 5 20 cbr 512 ------- 1 14.1 4.2 7 76
r 0.172288 20 4 cbr 512 ------- 1 11.0 4.1 5 54
r 0.172344 1 20 cbr 512 ------- 1 11.0 4.1 6 64
+ 0.172344 20 4 cbr 512 ------- 1 11.0 4.1 6 64
- 0.172344 20 5 cbr 512 ------- 1 19.0 5.2 6 69
- 0.17324 20 4 cbr 512 ------- 1 11.0 4.1 6 64
r 0.173248 20 5 cbr 512 ------- 1 16.0 5.1 5 57
- 0.173488 1 20 cbr 512 ------- 1 11.0 4.1 7 74
r 0.174392 1 20 cbr 512 ------- 1 16.0 5.1 6 67
+ 0.174392 20 5 cbr 512 ------- 1 16.0 5.1 6 67
- 0.174392 20 5 cbr 512 ------- 1 16.0 5.1 6 67
r 0.175296 20 4 cbr 512 ------- 1 17.1 4.3 5 58
- 0.175536 1 20 cbr 512 ------- 1 16.0 5.1 7 77
r 0.176192 20 1 cbr 512 ------- 1 6.0 1.0 6 61
r 0.17644 1 20 cbr 512 ------- 1 17.1 4.3 6 68
+ 0.17644 20 4 cbr 512 ------- 1 17.1 4.3 6 68
- 0.17644 20 4 cbr 512 ------- 1 17.1 4.3 6 68
r 0.177144 4 20 cbr 512 ------- 1 6.0 1.0 7 71
+ 0.177144 20 1 cbr 512 ------- 1 6.0 1.0 7 71
- 0.177144 20 1 cbr 512 ------- 1 6.0 1.0 7 71
r 0.177144 5 20 cbr 512 ------- 1 12.0 1.2 7 75
+ 0.177144 20 1 cbr 512 ------- 1 12.0 1.2 7 75
r 0.177344 20 5 cbr 512 ------- 1 7.0 5.0 6 62
- 0.177584 1 20 cbr 512 ------- 1 17.1 4.3 7 78
r 0.178096 2 4 cbr 512 ------- 1 2.0 4.0 8 80
r 0.178096 6 4 cbr 512 ------- 1 6.0 1.0 8 81
+ 0.178096 4 20 cbr 512 ------- 1 6.0 1.0 8 81
- 0.178096 4 20 cbr 512 ------- 1 6.0 1.0 8 81
r 0.178096 7 1 cbr 512 ------- 1 7.0 5.0 8 82
+ 0.178096 1 20 cbr 512 ------- 1 7.0 5.0 8 82
r 0.178096 9 1 cbr 512 ------- 1 9.0 1.1 8 83
r 0.178096 11 1 cbr 512 ------- 1 11.0 4.1 8 84
+ 0.178096 1 20 cbr 512 ------- 1 11.0 4.1 8 84
r 0.178096 12 5 cbr 512 ------- 1 12.0 1.2 8 85
+ 0.178096 5 20 cbr 512 ------- 1 12.0 1.2 8 85
- 0.178096 5 20 cbr 512 ------- 1 12.0 1.2 8 85
r 0.178096 14 5 cbr 512 ------- 1 14.1 4.2 8 86
+ 0.178096 5 20 cbr 512 ------- 1 14.1 4.2 8 86
r 0.178096 16 1 cbr 512 ------- 1 16.0 5.1 8 87
+ 0.178096 1 20 cbr 512 ------- 1 16.0 5.1 8 87
r 0.178096 17 1 cbr 512 ------- 1 17.1 4.3 8 88