+ 0.1 3 0 cbr 512 ------- 1 3.0 0.0 0 0
- 0.1 3 0 cbr 512 ------- 1 3.0 0.0 0 0
+ 0.1 5 18 cbr 512 ------- 1 5.0 18.0 0 1
- 0.1 5 18 cbr 512 ------- 1 5.0 18.0 0 1
+ 0.1 6 9 cbr 512 ------- 1 6.0 0.1 0 2
- 0.1 6 9 cbr 512 ------- 1 6.0 0.1 0 2
+ 0.1 7 18 cbr 512 ------- 1 7.0 9.0 0 3
- 0.1 7 18 cbr 512 ------- 1 7.0 9.0 0 3
+ 0.1 8 9 cbr 512 ------- 1 8.1 18.1 0 4
- 0.1 8 9 cbr 512 ------- 1 8.1 18.1 0 4
+ 0.1 10 9 cbr 512 ------- 1 10.0 9.1 0 5
- 0.1 10 9 cbr 512 ------- 1 10.0 9.1 0 5
+ 0.1 13 18 cbr 512 ------- 1 13.1 9.2 0 6
- 0.1 13 18 cbr 512 ------- 1 13.1 9.2 0 6
+ 0.1 14 9 cbr 512 ------- 1 14.0 18.2 0 7
- 0.1 14 9 cbr 512 ------- 1 14.0 18.2 0 7
+ 0.1 16 18 cbr 512 ------- 1 16.0 9.3 0 8
- 0.1 16 18 cbr 512 ------- 1 16.0 9.3 0 8
+ 0.1 17 9 cbr 512 ------- 1 17.0 18.3 0 9
- 0.1 17 9 cbr 512 ------- 1 17.0 18.3 0 9
+ 0.108 3 0 cbr 512 ------- 1 3.0 0.0 1 10
- 0.108 3 0 cbr 512 ------- 1 3.0 0.0 1 10
+ 0.108 5 18 cbr 512 ------- 1 5.0 18.0 1 11
- 0.108 5 18 cbr 512 ------- 1 5.0 18.0 1 11
+ 0.108 6 9 cbr 512 ------- 1 6.0 0.1 1 12
- 0.108 6 9 cbr 512 ------- 1 6.0 0.1 1 12
+ 0.108 7 18 cbr 512 ------- 1 7.0 9.0 1 13
- 0.108 7 18 cbr 512 ------- 1 7.0 9.0 1 13
+ 0.108 8 9 cbr 512 ------- 1 8.1 18.1 1 14
- 0.108 8 9 cbr 512 ------- 1 8.1 18.1 1 14
+ 0.108 10 9 cbr 512 ------- 1 10.0 9.1 1 15
- 0.108 10 9 cbr 512 ------- 1 10.0 9.1 1 15
+ 0.108 13 18 cbr 512 ------- 1 13.1 9.2 1 16
- 0.108 13 18 cbr 512 ------- 1 13.1 9.2 1 16
+ 0.108 14 9 cbr 512 ------- 1 14.0 18.2 1 17
- 0.108 14 9 cbr 512 ------- 1 14.0 18.2 1 17
+ 0.108 16 18 cbr 512 ------- 1 16.0 9.3 1 18
- 0.108 16 18 cbr 512 ------- 1 16.0 9.3 1 18
+ 0.108 17 9 cbr 512 ------- 1 17.0 18.3 1 19
- 0.108 17 9 cbr 512 ------- 1 17.0 18.3 1 19
r 0.114096 3 0 cbr 512 ------- 1 3.0 0.0 0 0
r 0.114096 5 18 cbr 512 ------- 1 5.0 18.0 0 1
r 0.114096 6 9 cbr 512 ------- 1 6.0 0.1 0 2
+ 0.114096 9 20 cbr 512 ------- 1 6.0 0.1 0 2
- 0.114096 9 20 cbr 512 ------- 1 6.0 0.1 0 2
r 0.114096 7 18 cbr 512 ------- 1 7.0 9.0 0 3
+ 0.114096 18 20 cbr 512 ------- 1 7.0 9.0 0 3
- 0.114096 18 20 cbr 512 ------- 1 7.0 9.0 0 3
r 0.114096 8 9 cbr 512 ------- 1 8.1 18.1 0 4
+ 0.114096 9 20 cbr 512 ------- 1 8.1 18.1 0 4
r 0.114096 10 9 cbr 512 ------- 1 10.0 9.1 0 5
r 0.114096 13 18 cbr 512 ------- 1 13.1 9.2 0 6
+ 0.114096 18 20 cbr 512 ------- 1 13.1 9.2 0 6
r 0.114096 14 9 cbr 512 ------- 1 14.0 18.2 0 7
+ 0.114096 9 20 cbr 512 ------- 1 14.0 18.2 0 7
r 0.114096 16 18 cbr 512 ------- 1 16.0 9.3 0 8
+ 0.114096 18 20 cbr 512 ------- 1 16.0 9.3 0 8
r 0.114096 17 9 cbr 512 ------- 1 17.0 18.3 0 9
+ 0.114096 9 20 cbr 512 ------- 1 17.0 18.3 0 9
+ 0.116 3 0 cbr 512 ------- 1 3.0 0.0 2 20
- 0.116 3 0 cbr 512 ------- 1 3.0 0.0 2 20
+ 0.116 5 18 cbr 512 ------- 1 5.0 18.0 2 21
- 0.116 5 18 cbr 512 ------- 1 5.0 18.0 2 21
+ 0.116 6 9 cbr 512 ------- 1 6.0 0.1 2 22
- 0.116 6 9 cbr 512 ------- 1 6.0 0.1 2 22
+ 0.116 7 18 cbr 512 ------- 1 7.0 9.0 2 23
- 0.116 7 18 cbr 512 ------- 1 7.0 9.0 2 23
+ 0.116 8 9 cbr 512 ------- 1 8.1 18.1 2 24
- 0.116 8 9 cbr 512 ------- 1 8.1 18.1 2 24
+ 0.116 10 9 cbr 512 ------- 1 10.0 9.1 2 25
- 0.116 10 9 cbr 512 ------- 1 10.0 9.1 2 25
+ 0.116 13 18 cbr 512 ------- 1 13.1 9.2 2 26
- 0.116 13 18 cbr 512 ------- 1 13.1 9.2 2 26
+ 0.116 14 9 cbr 512 ------- 1 14.0 18.2 2 27
- 0.116 14 9 cbr 512 ------- 1 14.0 18.2 2 27
+ 0.116 16 18 cbr 512 ------- 1 16.0 9.3 2 28
- 0.116 16 18 cbr 512 ------- 1 16.0 9.3 2 28
+ 0.116 17 9 cbr 512 ------- 1 17.0 18.3 2 29
- 0.116 17 9 cbr 512 ------- 1 17.0 18.3 2 29
- 0.116144 9 20 cbr 512 ------- 1 8.1 18.1 0 4
- 0.116144 18 20 cbr 512 ------- 1 13.1 9.2 0 6
- 0.118192 9 20 cbr 512 ------- 1 14.0 18.2 0 7
- 0.118192 18 20 cbr 512 ------- 1 16.0 9.3 0 8
- 0.12024 9 20 cbr 512 ------- 1 17.0 18.3 0 9
r 0.121144 9 20 cbr 512 ------- 1 6.0 0.1 0 2
+ 0.121144 20 0 cbr 512 ------- 1 6.0 0.1 0 2
- 0.121144 20 0 cbr 512 ------- 1 6.0 0.1 0 2
r 0.121144 18 20 cbr 512 ------- 1 7.0 9.0 0 3
+ 0.121144 20 9 cbr 512 ------- 1 7.0 9.0 0 3
- 0.121144 20 9 cbr 512 ------- 1 7.0 9.0 0 3
r 0.122096 3 0 cbr 512 ------- 1 3.0 0.0 1 10
r 0.122096 5 18 cbr 512 ------- 1 5.0 18.0 1 11
r 0.122096 6 9 cbr 512 ------- 1 6.0 0.1 1 12
+ 0.122096 9 20 cbr 512 ------- 1 6.0 0.1 1 12
r 0.122096 7 18 cbr 512 ------- 1 7.0 9.0 1 13
+ 0.122096 18 20 cbr 512 ------- 1 7.0 9.0 1 13
- 0.122096 18 20 cbr 512 ------- 1 7.0 9.0 1 13
r 0.122096 8 9 cbr 512 ------- 1 8.1 18.1 1 14
+ 0.122096 9 20 cbr 512 ------- 1 8.1 18.1 1 14
r 0.122096 10 9 cbr 512 ------- 1 10.0 9.1 1 15
r 0.122096 13 18 cbr 512 ------- 1 13.1 9.2 1 16
+ 0.122096 18 20 cbr 512 ------- 1 13.1 9.2 1 16
r 0.122096 14 9 cbr 512 ------- 1 14.0 18.2 1 17
+ 0.122096 9 20 cbr 512 ------- 1 14.0 18.2 1 17
r 0.122096 16 18 cbr 512 ------- 1 16.0 9.3 1 18
+ 0.122096 18 20 cbr 512 ------- 1 16.0 9.3 1 18
r 0.122096 17 9 cbr 512 ------- 1 17.0 18.3 1 19
+ 0.122096 9 20 cbr 512 ------- 1 17.0 18.3 1 19
- 0.122288 9 20 cbr 512 ------- 1 6.0 0.1 1 12
r 0.123192 9 20 cbr 512 ------- 1 8.1 18.1 0 4
+ 0.123192 20 18 cbr 512 ------- 1 8.1 18.1 0 4
- 0.123192 20 18 cbr 512 ------- 1 8.1 18.1 0 4
r 0.123192 18 20 cbr 512 ------- 1 13.1 9.2 0 6
+ 0.123192 20 9 cbr 512 ------- 1 13.1 9.2 0 6
- 0.123192 20 9 cbr 512 ------- 1 13.1 9.2 0 6
+ 0.124 3 0 cbr 512 ------- 1 3.0 0.0 3 30
- 0.124 3 0 cbr 512 ------- 1 3.0 0.0 3 30
+ 0.124 5 18 cbr 512 ------- 1 5.0 18.0 3 31
- 0.124 5 18 cbr 512 ------- 1 5.0 18.0 3 31
+ 0.124 6 9 cbr 512 ------- 1 6.0 0.1 3 32
- 0.124 6 9 cbr 512 ------- 1 6.0 0.1 3 32
+ 0.124 7 18 cbr 512 ------- 1 7.0 9.0 3 33
- 0.124 7 18 cbr 512 ------- 1 7.0 9.0 3 33
+ 0.124 8 9 cbr 512 ------- 1 8.1 18.1 3 34
- 0.124 8 9 cbr 512 ------- 1 8.1 18.1 3 34
+ 0.124 10 9 cbr 512 ------- 1 10.0 9.1 3 35
- 0.124 10 9 cbr 512 ------- 1 10.0 9.1 3 35
+ 0.124 13 18 cbr 512 ------- 1 13.1 9.2 3 36
- 0.124 13 18 cbr 512 ------- 1 13.1 9.2 3 36
+ 0.124 14 9 cbr 512 ------- 1 14.0 18.2 3 37
- 0.124 14 9 cbr 512 ------- 1 14.0 18.2 3 37
+ 0.124 16 18 cbr 512 ------- 1 16.0 9.3 3 38
- 0.124 16 18 cbr 512 ------- 1 16.0 9.3 3 38
+ 0.124 17 9 cbr 512 ------- 1 17.0 18.3 3 39
- 0.124 17 9 cbr 512 ------- 1 17.0 18.3 3 39
- 0.124144 18 20 cbr 512 ------- 1 13.1 9.2 1 16
- 0.124336 9 20 cbr 512 ------- 1 8.1 18.1 1 14
r 0.12524 9 20 cbr 512 ------- 1 14.0 18.2 0 7
+ 0.12524 20 18 cbr 512 ------- 1 14.0 18.2 0 7
r 0.12524 18 20 cbr 512 ------- 1 16.0 9.3 0 8
+ 0.12524 20 9 cbr 512 ------- 1 16.0 9.3 0 8
- 0.12524 20 18 cbr 512 ------- 1 14.0 18.2 0 7
- 0.12524 20 9 cbr 512 ------- 1 16.0 9.3 0 8
- 0.126192 18 20 cbr 512 ------- 1 16.0 9.3 1 18
- 0.126384 9 20 cbr 512 ------- 1 14.0 18.2 1 17
r 0.127288 9 20 cbr 512 ------- 1 17.0 18.3 0 9
+ 0.127288 20 18 cbr 512 ------- 1 17.0 18.3 0 9
- 0.127288 20 18 cbr 512 ------- 1 17.0 18.3 0 9
r 0.128192 20 0 cbr 512 ------- 1 6.0 0.1 0 2
r 0.128192 20 9 cbr 512 ------- 1 7.0 9.0 0 3
- 0.128432 9 20 cbr 512 ------- 1 17.0 18.3 1 19
r 0.129144 18 20 cbr 512 ------- 1 7.0 9.0 1 13
+ 0.129144 20 9 cbr 512 ------- 1 7.0 9.0 1 13
- 0.129144 20 9 cbr 512 ------- 1 7.0 9.0 1 13
r 0.129336 9 20 cbr 512 ------- 1 6.0 0.1 1 12
+ 0.129336 20 0 cbr 512 ------- 1 6.0 0.1 1 12
- 0.129336 20 0 cbr 512 ------- 1 6.0 0.1 1 12
r 0.130096 3 0 cbr 512 ------- 1 3.0 0.0 2 20
r 0.130096 5 18 cbr 512 ------- 1 5.0 18.0 2 21
r 0.130096 6 9 cbr 512 ------- 1 6.0 0.1 2 22
+ 0.130096 9 20 cbr 512 ------- 1 6.0 0.1 2 22
r 0.130096 7 18 cbr 512 ------- 1 7.0 9.0 2 23
+ 0.130096 18 20 cbr 512 ------- 1 7.0 9.0 2 23
- 0.130096 18 20 cbr 512 ------- 1 7.0 9.0 2 23
r 0.130096 8 9 cbr 512 ------- 1 8.1 18.1 2 24
+ 0.130096 9 20 cbr 512 ------- 1 8.1 18.1 2 24
r 0.130096 10 9 cbr 512 ------- 1 10.0 9.1 2 25
r 0.130096 13 18 cbr 512 ------- 1 13.1 9.2 2 26
+ 0.130096 18 20 cbr 512 ------- 1 13.1 9.2 2 26
r 0.130096 14 9 cbr 512 ------- 1 14.0 18.2 2 27
+ 0.130096 9 20 cbr 512 ------- 1 14.0 18.2 2 27
r 0.130096 16 18 cbr 512 ------- 1 16.0 9.3 2 28
+ 0.130096 18 20 cbr 512 ------- 1 16.0 9.3 2 28
r 0.130096 17 9 cbr 512 ------- 1 17.0 18.3 2 29
+ 0.130096 9 20 cbr 512 ------- 1 17.0 18.3 2 29
r 0.13024 20 18 cbr 512 ------- 1 8.1 18.1 0 4
r 0.13024 20 9 cbr 512 ------- 1 13.1 9.2 0 6
- 0.13048 9 20 cbr 512 ------- 1 6.0 0.1 2 22
r 0.131192 18 20 cbr 512 ------- 1 13.1 9.2 1 16
+ 0.131192 20 9 cbr 512 ------- 1 13.1 9.2 1 16
- 0.131192 20 9 cbr 512 ------- 1 13.1 9.2 1 16
r 0.131384 9 20 cbr 512 ------- 1 8.1 18.1 1 14
+ 0.131384 20 18 cbr 512 ------- 1 8.1 18.1 1 14
- 0.131384 20 18 cbr 512 ------- 1 8.1 18.1 1 14
+ 0.132 3 0 cbr 512 ------- 1 3.0 0.0 4 40
- 0.132 3 0 cbr 512 ------- 1 3.0 0.0 4 40
+ 0.132 5 18 cbr 512 ------- 1 5.0 18.0 4 41
- 0.132 5 18 cbr 512 ------- 1 5.0 18.0 4 41
+ 0.132 6 9 cbr 512 ------- 1 6.0 0.1 4 42
- 0.132 6 9 cbr 512 ------- 1 6.0 0.1 4 42
+ 0.132 7 18 cbr 512 ------- 1 7.0 9.0 4 43
- 0.132 7 18 cbr 512 ------- 1 7.0 9.0 4 43
+ 0.132 8 9 cbr 512 ------- 1 8.1 18.1 4 44
- 0.132 8 9 cbr 512 ------- 1 8.1 18.1 4 44
+ 0.132 10 9 cbr 512 ------- 1 10.0 9.1 4 45
- 0.132 10 9 cbr 512 ------- 1 10.0 9.1 4 45
+ 0.132 13 18 cbr 512 ------- 1 13.1 9.2 4 46
- 0.132 13 18 cbr 512 ------- 1 13.1 9.2 4 46
+ 0.132 14 9 cbr 512 ------- 1 14.0 18.2 4 47
- 0.132 14 9 cbr 512 ------- 1 14.0 18.2 4 47
+ 0.132 16 18 cbr 512 ------- 1 16.0 9.3 4 48
- 0.132 16 18 cbr 512 ------- 1 16.0 9.3 4 48
+ 0.132 17 9 cbr 512 ------- 1 17.0 18.3 4 49
- 0.132 17 9 cbr 512 ------- 1 17.0 18.3 4 49
- 0.132144 18 20 cbr 512 ------- 1 13.1 9.2 2 26
r 0.132288 20 18 cbr 512 ------- 1 14.0 18.2 0 7
r 0.132288 20 9 cbr 512 ------- 1 16.0 9.3 0 8
- 0.132528 9 20 cbr 512 ------- 1 8.1 18.1 2 24
r 0.13324 18 20 cbr 512 ------- 1 16.0 9.3 1 18
+ 0.13324 20 9 cbr 512 ------- 1 16.0 9.3 1 18
- 0.13324 20 9 cbr 512 ------- 1 16.0 9.3 1 18
r 0.133432 9 20 cbr 512 ------- 1 14.0 18.2 1 17
+ 0.133432 20 18 cbr 512 ------- 1 14.0 18.2 1 17
- 0.133432 20 18 cbr 512 ------- 1 14.0 18.2 1 17
- 0.134192 18 20 cbr 512 ------- 1 16.0 9.3 2 28
r 0.134336 20 18 cbr 512 ------- 1 17.0 18.3 0 9
- 0.134576 9 20 cbr 512 ------- 1 14.0 18.2 2 27
r 0.13548 9 20 cbr 512 ------- 1 17.0 18.3 1 19
+ 0.13548 20 18 cbr 512 ------- 1 17.0 18.3 1 19
- 0.13548 20 18 cbr 512 ------- 1 17.0 18.3 1 19
r 0.136192 20 9 cbr 512 ------- 1 7.0 9.0 1 13
r 0.136384 20 0 cbr 512 ------- 1 6.0 0.1 1 12
- 0.136624 9 20 cbr 512 ------- 1 17.0 18.3 2 29
r 0.137144 18 20 cbr 512 ------- 1 7.0 9.0 2 23
+ 0.137144 20 9 cbr 512 ------- 1 7.0 9.0 2 23
- 0.137144 20 9 cbr 512 ------- 1 7.0 9.0 2 23
r 0.137528 9 20 cbr 512 ------- 1 6.0 0.1 2 22
+ 0.137528 20 0 cbr 512 ------- 1 6.0 0.1 2 22
- 0.137528 20 0 cbr 512 ------- 1 6.0 0.1 2 22
r 0.138096 3 0 cbr 512 ------- 1 3.0 0.0 3 30
r 0.138096 5 18 cbr 512 ------- 1 5.0 18.0 3 31
r 0.138096 6 9 cbr 512 ------- 1 6.0 0.1 3 32
+ 0.138096 9 20 cbr 512 ------- 1 6.0 0.1 3 32
r 0.138096 7 18 cbr 512 ------- 1 7.0 9.0 3 33
+ 0.138096 18 20 cbr 512 ------- 1 7.0 9.0 3 33
- 0.138096 18 20 cbr 512 ------- 1 7.0 9.0 3 33
r 0.138096 8 9 cbr 512 ------- 1 8.1 18.1 3 34
+ 0.138096 9 20 cbr 512 ------- 1 8.1 18.1 3 34
r 0.138096 10 9 cbr 512 ------- 1 10.0 9.1 3 35
r 0.138096 13 18 cbr 512 ------- 1 13.1 9.2 3 36
+ 0.138096 18 20 cbr 512 ------- 1 13.1 9.2 3 36
r 0.138096 14 9 cbr 512 ------- 1 14.0 18.2 3 37
+ 0.138096 9 20 cbr 512 ------- 1 14.0 18.2 3 37
r 0.138096 16 18 cbr 512 ------- 1 16.0 9.3 3 38
+ 0.138096 18 20 cbr 512 ------- 1 16.0 9.3 3 38
r 0.138096 17 9 cbr 512 ------- 1 17.0 18.3 3 39
+ 0.138096 9 20 cbr 512 ------- 1 17.0 18.3 3 39
r 0.13824 20 9 cbr 512 ------- 1 13.1 9.2 1 16
r 0.138432 20 18 cbr 512 ------- 1 8.1 18.1 1 14
- 0.138672 9 20 cbr 512 ------- 1 6.0 0.1 3 32
r 0.139192 18 20 cbr 512 ------- 1 13.1 9.2 2 26
+ 0.139192 20 9 cbr 512 ------- 1 13.1 9.2 2 26
- 0.139192 20 9 cbr 512 ------- 1 13.1 9.2 2 26
r 0.139576 9 20 cbr 512 ------- 1 8.1 18.1 2 24
+ 0.139576 20 18 cbr 512 ------- 1 8.1 18.1 2 24
- 0.139576 20 18 cbr 512 ------- 1 8.1 18.1 2 24
+ 0.14 3 0 cbr 512 ------- 1 3.0 0.0 5 50
- 0.14 3 0 cbr 512 ------- 1 3.0 0.0 5 50
+ 0.14 5 18 cbr 512 ------- 1 5.0 18.0 5 51
- 0.14 5 18 cbr 512 ------- 1 5.0 18.0 5 51
+ 0.14 6 9 cbr 512 ------- 1 6.0 0.1 5 52
- 0.14 6 9 cbr 512 ------- 1 6.0 0.1 5 52
+ 0.14 7 18 cbr 512 ------- 1 7.0 9.0 5 53
- 0.14 7 18 cbr 512 ------- 1 7.0 9.0 5 53
+ 0.14 8 9 cbr 512 ------- 1 8.1 18.1 5 54
- 0.14 8 9 cbr 512 ------- 1 8.1 18.1 5 54
+ 0.14 10 9 cbr 512 ------- 1 10.0 9.1 5 55
- 0.14 10 9 cbr 512 ------- 1 10.0 9.1 5 55
+ 0.14 13 18 cbr 512 ------- 1 13.1 9.2 5 56
- 0.14 13 18 cbr 512 ------- 1 13.1 9.2 5 56
+ 0.14 14 9 cbr 512 ------- 1 14.0 18.2 5 57
- 0.14 14 9 cbr 512 ------- 1 14.0 18.2 5 57
+ 0.14 16 18 cbr 512 ------- 1 16.0 9.3 5 58
- 0.14 16 18 cbr 512 ------- 1 16.0 9.3 5 58
+ 0.14 17 9 cbr 512 ------- 1 17.0 18.3 5 59
- 0.14 17 9 cbr 512 ------- 1 17.0 18.3 5 59
- 0.140144 18 20 cbr 512 ------- 1 13.1 9.2 3 36
r 0.140288 20 9 cbr 512 ------- 1 16.0 9.3 1 18
r 0.14048 20 18 cbr 512 ------- 1 14.0 18.2 1 17
- 0.14072 9 20 cbr 512 ------- 1 8.1 18.1 3 34
r 0.14124 18 20 cbr 512 ------- 1 16.0 9.3 2 28
+ 0.14124 20 9 cbr 512 ------- 1 16.0 9.3 2 28
- 0.14124 20 9 cbr 512 ------- 1 16.0 9.3 2 28
r 0.141624 9 20 cbr 512 ------- 1 14.0 18.2 2 27
+ 0.141624 20 18 cbr 512 ------- 1 14.0 18.2 2 27
- 0.141624 20 18 cbr 512 ------- 1 14.0 18.2 2 27
- 0.142192 18 20 cbr 512 ------- 1 16.0 9.3 3 38
r 0.142528 20 18 cbr 512 ------- 1 17.0 18.3 1 19
- 0.142768 9 20 cbr 512 ------- 1 14.0 18.2 3 37
r 0.143672 9 20 cbr 512 ------- 1 17.0 18.3 2 29
+ 0.143672 20 18 cbr 512 ------- 1 17.0 18.3 2 29
- 0.143672 20 18 cbr 512 ------- 1 17.0 18.3 2 29
r 0.144192 20 9 cbr 512 ------- 1 7.0 9.0 2 23
r 0.144576 20 0 cbr 512 ------- 1 6.0 0.1 2 22
- 0.144816 9 20 cbr 512 ------- 1 17.0 18.3 3 39
r 0.145144 18 20 cbr 512 ------- 1 7.0 9.0 3 33
+ 0.145144 20 9 cbr 512 ------- 1 7.0 9.0 3 33
- 0.145144 20 9 cbr 512 ------- 1 7.0 9.0 3 33
r 0.14572 9 20 cbr 512 ------- 1 6.0 0.1 3 32
+ 0.14572 20 0 cbr 512 ------- 1 6.0 0.1 3 32
- 0.14572 20 0 cbr 512 ------- 1 6.0 0.1 3 32
r 0.146096 3 0 cbr 512 ------- 1 3.0 0.0 4 40
r 0.146096 5 18 cbr 512 ------- 1 5.0 18.0 4 41
r 0.146096 6 9 cbr 512 ------- 1 6.0 0.1 4 42
+ 0.146096 9 20 cbr 512 ------- 1 6.0 0.1 4 42
r 0.146096 7 18 cbr 512 ------- 1 7.0 9.0 4 43
+ 0.146096 18 20 cbr 512 ------- 1 7.0 9.0 4 43
- 0.146096 18 20 cbr 512 ------- 1 7.0 9.0 4 43
r 0.146096 8 9 cbr 512 ------- 1 8.1 18.1 4 44
+ 0.146096 9 20 cbr 512 ------- 1 8.1 18.1 4 44
r 0.146096 10 9 cbr 512 ------- 1 10.0 9.1 4 45
r 0.146096 13 18 cbr 512 ------- 1 13.1 9.2 4 46
+ 0.146096 18 20 cbr 512 ------- 1 13.1 9.2 4 46
r 0.146096 14 9 cbr 512 ------- 1 14.0 18.2 4 47
+ 0.146096 9 20 cbr 512 ------- 1 14.0 18.2 4 47
r 0.146096 16 18 cbr 512 ------- 1 16.0 9.3 4 48
+ 0.146096 18 20 cbr 512 ------- 1 16.0 9.3 4 48
r 0.146096 17 9 cbr 512 ------- 1 17.0 18.3 4 49
+ 0.146096 9 20 cbr 512 ------- 1 17.0 18.3 4 49
r 0.14624 20 9 cbr 512 ------- 1 13.1 9.2 2 26
r 0.146624 20 18 cbr 512 ------- 1 8.1 18.1 2 24
- 0.146864 9 20 cbr 512 ------- 1 6.0 0.1 4 42
r 0.147192 18 20 cbr 512 ------- 1 13.1 9.2 3 36
+ 0.147192 20 9 cbr 512 ------- 1 13.1 9.2 3 36
- 0.147192 20 9 cbr 512 ------- 1 13.1 9.2 3 36
r 0.147768 9 20 cbr 512 ------- 1 8.1 18.1 3 34
+ 0.147768 20 18 cbr 512 ------- 1 8.1 18.1 3 34
- 0.147768 20 18 cbr 512 ------- 1 8.1 18.1 3 34
+ 0.148 3 0 cbr 512 ------- 1 3.0 0.0 6 60
- 0.148 3 0 cbr 512 ------- 1 3.0 0.0 6 60
+ 0.148 5 18 cbr 512 ------- 1 5.0 18.0 6 61
- 0.148 5 18 cbr 512 ------- 1 5.0 18.0 6 61
+ 0.148 6 9 cbr 512 ------- 1 6.0 0.1 6 62
- 0.148 6 9 cbr 512 ------- 1 6.0 0.1 6 62
+ 0.148 7 18 cbr 512 ------- 1 7.0 9.0 6 63
- 0.148 7 18 cbr 512 ------- 1 7.0 9.0 6 63
+ 0.148 8 9 cbr 512 ------- 1 8.1 18.1 6 64
- 0.148 8 9 cbr 512 ------- 1 8.1 18.1 6 64
+ 0.148 10 9 cbr 512 ------- 1 10.0 9.1 6 65
- 0.148 10 9 cbr 512 ------- 1 10.0 9.1 6 65
+ 0.148 13 18 cbr 512 ------- 1 13.1 9.2 6 66
- 0.148 13 18 cbr 512 ------- 1 13.1 9.2 6 66
+ 0.148 14 9 cbr 512 ------- 1 14.0 18.2 6 67
- 0.148 14 9 cbr 512 ------- 1 14.0 18.2 6 67
+ 0.148 16 18 cbr 512 ------- 1 16.0 9.3 6 68
- 0.148 16 18 cbr 512 ------- 1 16.0 9.3 6 68
+ 0.148 17 9 cbr 512 ------- 1 17.0 18.3 6 69
- 0.148 17 9 cbr 512 ------- 1 17.0 18.3 6 69
- 0.148144 18 20 cbr 512 ------- 1 13.1 9.2 4 46
r 0.148288 20 9 cbr 512 ------- 1 16.0 9.3 2 28
r 0.148672 20 18 cbr 512 ------- 1 14.0 18.2 2 27
- 0.148912 9 20 cbr 512 ------- 1 8.1 18.1 4 44
r 0.14924 18 20 cbr 512 ------- 1 16.0 9.3 3 38
+ 0.14924 20 9 cbr 512 ------- 1 16.0 9.3 3 38
- 0.14924 20 9 cbr 512 ------- 1 16.0 9.3 3 38
r 0.149816 9 20 cbr 512 ------- 1 14.0 18.2 3 37
+ 0.149816 20 18 cbr 512 ------- 1 14.0 18.2 3 37
- 0.149816 20 18 cbr 512 ------- 1 14.0 18.2 3 37
- 0.150192 18 20 cbr 512 ------- 1 16.0 9.3 4 48
r 0.15072 20 18 cbr 512 ------- 1 17.0 18.3 2 29
- 0.15096 9 20 cbr 512 ------- 1 14.0 18.2 4 47
r 0.151864 9 20 cbr 512 ------- 1 17.0 18.3 3 39
+ 0.151864 20 18 cbr 512 ------- 1 17.0 18.3 3 39
- 0.151864 20 18 cbr 512 ------- 1 17.0 18.3 3 39
r 0.152192 20 9 cbr 512 ------- 1 7.0 9.0 3 33
r 0.152768 20 0 cbr 512 ------- 1 6.0 0.1 3 32
- 0.153008 9 20 cbr 512 ------- 1 17.0 18.3 4 49
r 0.153144 18 20 cbr 512 ------- 1 7.0 9.0 4 43
+ 0.153144 20 9 cbr 512 ------- 1 7.0 9.0 4 43
- 0.153144 20 9 cbr 512 ------- 1 7.0 9.0 4 43
r 0.153912 9 20 cbr 512 ------- 1 6.0 0.1 4 42
+ 0.153912 20 0 cbr 512 ------- 1 6.0 0.1 4 42
- 0.153912 20 0 cbr 512 ------- 1 6.0 0.1 4 42
r 0.154096 3 0 cbr 512 ------- 1 3.0 0.0 5 50
r 0.154096 5 18 cbr 512 ------- 1 5.0 18.0 5 51
r 0.154096 6 9 cbr 512 ------- 1 6.0 0.1 5 52
+ 0.154096 9 20 cbr 512 ------- 1 6.0 0.1 5 52
r 0.154096 7 18 cbr 512 ------- 1 7.0 9.0 5 53
+ 0.154096 18 20 cbr 512 ------- 1 7.0 9.0 5 53
- 0.154096 18 20 cbr 512 ------- 1 7.0 9.0 5 53
r 0.154096 8 9 cbr 512 ------- 1 8.1 18.1 5 54
+ 0.154096 9 20 cbr 512 ------- 1 8.1 18.1 5 54
r 0.154096 10 9 cbr 512 ------- 1 10.0 9.1 5 55
r 0.154096 13 18 cbr 512 ------- 1 13.1 9.2 5 56
+ 0.154096 18 20 cbr 512 ------- 1 13.1 9.2 5 56
r 0.154096 14 9 cbr 512 ------- 1 14.0 18.2 5 57
+ 0.154096 9 20 cbr 512 ------- 1 14.0 18.2 5 57
r 0.154096 16 18 cbr 512 ------- 1 16.0 9.3 5 58
+ 0.154096 18 20 cbr 512 ------- 1 16.0 9.3 5 58
r 0.154096 17 9 cbr 512 ------- 1 17.0 18.3 5 59
+ 0.154096 9 20 cbr 512 ------- 1 17.0 18.3 5 59
r 0.15424 20 9 cbr 512 ------- 1 13.1 9.2 3 36
r 0.154816 20 18 cbr 512 ------- 1 8.1 18.1 3 34
- 0.155056 9 20 cbr 512 ------- 1 6.0 0.1 5 52
r 0.155192 18 20 cbr 512 ------- 1 13.1 9.2 4 46
+ 0.155192 20 9 cbr 512 ------- 1 13.1 9.2 4 46
- 0.155192 20 9 cbr 512 ------- 1 13.1 9.2 4 46
r 0.15596 9 20 cbr 512 ------- 1 8.1 18.1 4 44
+ 0.15596 20 18 cbr 512 ------- 1 8.1 18.1 4 44
- 0.15596 20 18 cbr 512 ------- 1 8.1 18.1 4 44
+ 0.156 3 0 cbr 512 ------- 1 3.0 0.0 7 70
- 0.156 3 0 cbr 512 ------- 1 3.0 0.0 7 70
+ 0.156 5 18 cbr 512 ------- 1 5.0 18.0 7 71
- 0.156 5 18 cbr 512 ------- 1 5.0 18.0 7 71
+ 0.156 6 9 cbr 512 ------- 1 6.0 0.1 7 72
- 0.156 6 9 cbr 512 ------- 1 6.0 0.1 7 72
+ 0.156 7 18 cbr 512 ------- 1 7.0 9.0 7 73
- 0.156 7 18 cbr 512 ------- 1 7.0 9.0 7 73
+ 0.156 8 9 cbr 512 ------- 1 8.1 18.1 7 74
- 0.156 8 9 cbr 512 ------- 1 8.1 18.1 7 74
+ 0.156 10 9 cbr 512 ------- 1 10.0 9.1 7 75
- 0.156 10 9 cbr 512 ------- 1 10.0 9.1 7 75
+ 0.156 13 18 cbr 512 ------- 1 13.1 9.2 7 76
- 0.156 13 18 cbr 512 ------- 1 13.1 9.2 7 76
+ 0.156 14 9 cbr 512 ------- 1 14.0 18.2 7 77
- 0.156 14 9 cbr 512 ------- 1 14.0 18.2 7 77
+ 0.156 16 18 cbr 512 ------- 1 16.0 9.3 7 78
- 0.156 16 18 cbr 512 ------- 1 16.0 9.3 7 78
+ 0.156 17 9 cbr 512 ------- 1 17.0 18.3 7 79
- 0.156 17 9 cbr 512 ------- 1 17.0 18.3 7 79
- 0.156144 18 20 cbr 512 ------- 1 13.1 9.2 5 56
r 0.156288 20 9 cbr 512 ------- 1 16.0 9.3 3 38
r 0.156864 20 18 cbr 512 ------- 1 14.0 18.2 3 37
- 0.157104 9 20 cbr 512 ------- 1 8.1 18.1 5 54
r 0.15724 18 20 cbr 512 ------- 1 16.0 9.3 4 48
+ 0.15724 20 9 cbr 512 ------- 1 16.0 9.3 4 48
- 0.15724 20 9 cbr 512 ------- 1 16.0 9.3 4 48
r 0.158008 9 20 cbr 512 ------- 1 14.0 18.2 4 47
+ 0.158008 20 18 cbr 512 ------- 1 14.0 18.2 4 47
- 0.158008 20 18 cbr 512 ------- 1 14.0 18.2 4 47
- 0.158192 18 20 cbr 512 ------- 1 16.0 9.3 5 58
r 0.158912 20 18 cbr 512 ------- 1 17.0 18.3 3 39
- 0.159152 9 20 cbr 512 ------- 1 14.0 18.2 5 57
r 0.160056 9 20 cbr 512 ------- 1 17.0 18.3 4 49
+ 0.160056 20 18 cbr 512 ------- 1 17.0 18.3 4 49
- 0.160056 20 18 cbr 512 ------- 1 17.0 18.3 4 49
r 0.160192 20 9 cbr 512 ------- 1 7.0 9.0 4 43
r 0.16096 20 0 cbr 512 ------- 1 6.0 0.1 4 42
r 0.161144 18 20 cbr 512 ------- 1 7.0 9.0 5 53
+ 0.161144 20 9 cbr 512 ------- 1 7.0 9.0 5 53
- 0.161144 20 9 cbr 512 ------- 1 7.0 9.0 5 53
- 0.1612 9 20 cbr 512 ------- 1 17.0 18.3 5 59
r 0.162096 3 0 cbr 512 ------- 1 3.0 0.0 6 60
r 0.162096 5 18 cbr 512 ------- 1 5.0 18.0 6 61
r 0.162096 6 9 cbr 512 ------- 1 6.0 0.1 6 62
+ 0.162096 9 20 cbr 512 ------- 1 6.0 0.1 6 62
r 0.162096 7 18 cbr 512 ------- 1 7.0 9.0 6 63
+ 0.162096 18 20 cbr 512 ------- 1 7.0 9.0 6 63
- 0.162096 18 20 cbr 512 ------- 1 7.0 9.0 6 63
r 0.162096 8 9 cbr 512 ------- 1 8.1 18.1 6 64
+ 0.162096 9 20 cbr 512 ------- 1 8.1 18.1 6 64
r 0.162096 10 9 cbr 512 ------- 1 10.0 9.1 6 65
r 0.162096 13 18 cbr 512 ------- 1 13.1 9.2 6 66
+ 0.162096 18 20 cbr 512 ------- 1 13.1 9.2 6 66
r 0.162096 14 9 cbr 512 ------- 1 14.0 18.2 6 67
+ 0.162096 9 20 cbr 512 ------- 1 14.0 18.2 6 67
r 0.162096 16 18 cbr 512 ------- 1 16.0 9.3 6 68
+ 0.162096 18 20 cbr 512 ------- 1 16.0 9.3 6 68
r 0.162096 17 9 cbr 512 ------- 1 17.0 18.3 6 69
+ 0.162096 9 20 cbr 512 ------- 1 17.0 18.3 6 69
r 0.162104 9 20 cbr 512 ------- 1 6.0 0.1 5 52
+ 0.162104 20 0 cbr 512 ------- 1 6.0 0.1 5 52
- 0.162104 20 0 cbr 512 ------- 1 6.0 0.1 5 52
r 0.16224 20 9 cbr 512 ------- 1 13.1 9.2 4 46
r 0.163008 20 18 cbr 512 ------- 1 8.1 18.1 4 44
r 0.163192 18 20 cbr 512 ------- 1 13.1 9.2 5 56
+ 0.163192 20 9 cbr 512 ------- 1 13.1 9.2 5 56
- 0.163192 20 9 cbr 512 ------- 1 13.1 9.2 5 56
- 0.163248 9 20 cbr 512 ------- 1 6.0 0.1 6 62
+ 0.164 3 0 cbr 512 ------- 1 3.0 0.0 8 80
- 0.164 3 0 cbr 512 ------- 1 3.0 0.0 8 80
+ 0.164 5 18 cbr 512 ------- 1 5.0 18.0 8 81
- 0.164 5 18 cbr 512 ------- 1 5.0 18.0 8 81
+ 0.164 6 9 cbr 512 ------- 1 6.0 0.1 8 82
- 0.164 6 9 cbr 512 ------- 1 6.0 0.1 8 82
+ 0.164 7 18 cbr 512 ------- 1 7.0 9.0 8 83
- 0.164 7 18 cbr 512 ------- 1 7.0 9.0 8 83
+ 0.164 8 9 cbr 512 ------- 1 8.1 18.1 8 84
- 0.164 8 9 cbr 512 ------- 1 8.1 18.1 8 84
+ 0.164 10 9 cbr 512 ------- 1 10.0 9.1 8 85
- 0.164 10 9 cbr 512 ------- 1 10.0 9.1 8 85
+ 0.164 13 18 cbr 512 ------- 1 13.1 9.2 8 86
- 0.164 13 18 cbr 512 ------- 1 13.1 9.2 8 86
+ 0.164 14 9 cbr 512 ------- 1 14.0 18.2 8 87
- 0.164 14 9 cbr 512 ------- 1 14.0 18.2 8 87
+ 0.164 16 18 cbr 512 ------- 1 16.0 9.3 8 88
- 0.164 16 18 cbr 512 ------- 1 16.0 9.3 8 88
+ 0.164 17 9 cbr 512 ------- 1 17.0 18.3 8 89
- 0.164 17 9 cbr 512 ------- 1 17.0 18.3 8 89
- 0.164144 18 20 cbr 512 ------- 1 13.1 9.2 6 66
r 0.164152 9 20 cbr 512 ------- 1 8.1 18.1 5 54
+ 0.164152 20 18 cbr 512 ------- 1 8.1 18.1 5 54
- 0.164152 20 18 cbr 512 ------- 1 8.1 18.1 5 54
r 0.164288 20 9 cbr 512 ------- 1 16.0 9.3 4 48
r 0.165056 20 18 cbr 512 ------- 1 14.0 18.2 4 47
r 0.16524 18 20 cbr 512 ------- 1 16.0 9.3 5 58
+ 0.16524 20 9 cbr 512 ------- 1 16.0 9.3 5 58
- 0.16524 20 9 cbr 512 ------- 1 16.0 9.3 5 58
- 0.165296 9 20 cbr 512 ------- 1 8.1 18.1 6 64
- 0.166192 18 20 cbr 512 ------- 1 16.0 9.3 6 68
r 0.1662 9 20 cbr 512 ------- 1 14.0 18.2 5 57
+ 0.1662 20 18 cbr 512 ------- 1 14.0 18.2 5 57
- 0.1662 20 18 cbr 512 ------- 1 14.0 18.2 5 57
r 0.167104 20 18 cbr 512 ------- 1 17.0 18.3 4 49
- 0.167344 9 20 cbr 512 ------- 1 14.0 18.2 6 67
r 0.168192 20 9 cbr 512 ------- 1 7.0 9.0 5 53
r 0.168248 9 20 cbr 512 ------- 1 17.0 18.3 5 59
+ 0.168248 20 18 cbr 512 ------- 1 17.0 18.3 5 59
- 0.168248 20 18 cbr 512 ------- 1 17.0 18.3 5 59
r 0.169144 18 20 cbr 512 ------- 1 7.0 9.0 6 63
+ 0.169144 20 9 cbr 512 ------- 1 7.0 9.0 6 63
- 0.169144 20 9 cbr 512 ------- 1 7.0 9.0 6 63
r 0.169152 20 0 cbr 512 ------- 1 6.0 0.1 5 52
- 0.169392 9 20 cbr 512 ------- 1 17.0 18.3 6 69
r 0.170096 3 0 cbr 512 ------- 1 3.0 0.0 7 70
r 0.170096 5 18 cbr 512 ------- 1 5.0 18.0 7 71
r 0.170096 6 9 cbr 512 ------- 1 6.0 0.1 7 72
+ 0.170096 9 20 cbr 512 ------- 1 6.0 0.1 7 72
r 0.170096 7 18 cbr 512 ------- 1 7.0 9.0 7 73
+ 0.170096 18 20 cbr 512 ------- 1 7.0 9.0 7 73
- 0.170096 18 20 cbr 512 ------- 1 7.0 9.0 7 73
r 0.170096 8 9 cbr 512 ------- 1 8.1 18.1 7 74
+ 0.170096 9 20 cbr 512 ------- 1 8.1 18.1 7 74
r 0.170096 10 9 cbr 512 ------- 1 10.0 9.1 7 75
r 0.170096 13 18 cbr 512 ------- 1 13.1 9.2 7 76
+ 0.170096 18 20 cbr 512 ------- 1 13.1 9.2 7 76
r 0.170096 14 9 cbr 512 ------- 1 14.0 18.2 7 77
+ 0.170096 9 20 cbr 512 ------- 1 14.0 18.2 7 77
r 0.170096 16 18 cbr 512 ------- 1 16.0 9.3 7 78
+ 0.170096 18 20 cbr 512 ------- 1 16.0 9.3 7 78
r 0.170096 17 9 cbr 512 ------- 1 17.0 18.3 7 79
+ 0.170096 9 20 cbr 512 ------- 1 17.0 18.3 7 79
r 0.17024 20 9 cbr 512 ------- 1 13.1 9.2 5 56
r 0.170296 9 20 cbr 512 ------- 1 6.0 0.1 6 62
+ 0.170296 20 0 cbr 512 ------- 1 6.0 0.1 6 62
- 0.170296 20 0 cbr 512 ------- 1 6.0 0.1 6 62
r 0.171192 18 20 cbr 512 ------- 1 13.1 9.2 6 66
+ 0.171192 20 9 cbr 512 ------- 1 13.1 9.2 6 66
- 0.171192 20 9 cbr 512 ------- 1 13.1 9.2 6 66
r 0.1712 20 18 cbr 512 ------- 1 8.1 18.1 5 54
- 0.17144 9 20 cbr 512 ------- 1 6.0 0.1 7 72
+ 0.172 3 0 cbr 512 ------- 1 3.0 0.0 9 90
- 0.172 3 0 cbr 512 ------- 1 3.0 0.0 9 90
+ 0.172 5 18 cbr 512 ------- 1 5.0 18.0 9 91
- 0.172 5 18 cbr 512 ------- 1 5.0 18.0 9 91
+ 0.172 6 9 cbr 512 ------- 1 6.0 0.1 9 92
- 0.172 6 9 cbr 512 ------- 1 6.0 0.1 9 92
+ 0.172 7 18 cbr 512 ------- 1 7.0 9.0 9 93
- 0.172 7 18 cbr 512 ------- 1 7.0 9.0 9 93
+ 0.172 8 9 cbr 512 ------- 1 8.1 18.1 9 94
- 0.172 8 9 cbr 512 ------- 1 8.1 18.1 9 94
+ 0.172 10 9 cbr 512 ------- 1 10.0 9.1 9 95
- 0.172 10 9 cbr 512 ------- 1 10.0 9.1 9 95
+ 0.172 13 18 cbr 512 ------- 1 13.1 9.2 9 96
- 0.172 13 18 cbr 512 ------- 1 13.1 9.2 9 96
+ 0.172 14 9 cbr 512 ------- 1 14.0 18.2 9 97
- 0.172 14 9 cbr 512 ------- 1 14.0 18.2 9 97
+ 0.172 16 18 cbr 512 ------- 1 16.0 9.3 9 98
- 0.172 16 18 cbr 512 ------- 1 16.0 9.3 9 98
+ 0.172 17 9 cbr 512 ------- 1 17.0 18.3 9 99
- 0.172 17 9 cbr 512 ------- 1 17.0 18.3 9 99
- 0.172144 18 20 cbr 512 ------- 1 13.1 9.2 7 76
r 0.172288 20 9 cbr 512 ------- 1 16.0 9.3 5 58
r 0.172344 9 20 cbr 512 ------- 1 8.1 18.1 6 64
+ 0.172344 20 18 cbr 512 ------- 1 8.1 18.1 6 64
- 0.172344 20 18 cbr 512 ------- 1 8.1 18.1 6 64
r 0.17324 18 20 cbr 512 ------- 1 16.0 9.3 6 68
+ 0.17324 20 9 cbr 512 ------- 1 16.0 9.3 6 68
- 0.17324 20 9 cbr 512 ------- 1 16.0 9.3 6 68
r 0.173248 20 18 cbr 512 ------- 1 14.0 18.2 5 57
- 0.173488 9 20 cbr 512 ------- 1 8.1 18.1 7 74
- 0.174192 18 20 cbr 512 ------- 1 16.0 9.3 7 78
r 0.174392 9 20 cbr 512 ------- 1 14.0 18.2 6 67
+ 0.174392 20 18 cbr 512 ------- 1 14.0 18.2 6 67
- 0.174392 20 18 cbr 512 ------- 1 14.0 18.2 6 67
r 0.175296 20 18 cbr 512 ------- 1 17.0 18.3 5 59
- 0.175536 9 20 cbr 512 ------- 1 14.0 18.2 7 77
r 0.176192 20 9 cbr 512 ------- 1 7.0 9.0 6 63
r 0.17644 9 20 cbr 512 ------- 1 17.0 18.3 6 69
+ 0.17644 20 18 cbr 512 ------- 1 17.0 18.3 6 69
- 0.17644 20 18 cbr 512 ------- 1 17.0 18.3 6 69
r 0.177144 18 20 cbr 512 ------- 1 7.0 9.0 7 73
+ 0.177144 20 9 cbr 512 ------- 1 7.0 9.0 7 73
- 0.177144 20 9 cbr 512 ------- 1 7.0 9.0 7 73
r 0.177344 20 0 cbr 512 ------- 1 6.0 0.1 6 62
- 0.177584 9 20 cbr 512 ------- 1 17.0 18.3 7 79
r 0.178096 3 0 cbr 512 ------- 1 3.0 0.0 8 80
r 0.178096 5 18 cbr 512 ------- 1 5.0 18.0 8 81
r 0.178096 6 9 cbr 512 ------- 1 6.0 0.1 8 82
+ 0.178096 9 20 cbr 512 ------- 1 6.0 0.1 8 82
r 0.178096 7 18 cbr 512 ------- 1 7.0 9.0 8 83
+ 0.178096 18 20 cbr 512 ------- 1 7.0 9.0 8 83
- 0.178096 18 20 cbr 512 ------- 1 7.0 9.0 8 83
r 0.178096 8 9 cbr 512 ------- 1 8.1 18.1 8 84
+ 0.178096 9 20 cbr 512 ------- 1 8.1 18.1 8 84
r 0.178096 10 9 cbr 512 ------- 1 10.0 9.1 8 85
r 0.178096 13 18 cbr 512 ------- 1 13.1 9.2 8 86
+ 0.178096 18 20 cbr 512 ------- 1 13.1 9.2 8 86
r 0.178096 14 9 cbr 512 ------- 1 14.0 18.2 8 87
+ 0.178096 9 20 cbr 512 ------- 1 14.0 18.2 8 87
r 0.178096 16 18 cbr 512 ------- 1 16.0 9.3 8 88
+ 0.178096 18 20 cbr 512 ------- 1 16.0 9.3 8 88
r 0.178096 17 9 cbr 512 ------- 1 17.0 18.3 8 89
+ 0.178096 9 20 cbr 512 ------- 1 17.0 18.3 8 89
r 0.17824 20 9 cbr 512 ------- 1 13.1 9.2 6 66
r 0.178488 9 20 cbr 512 ------- 1 6.0 0.1 7 72
+ 0.178488 20 0 cbr 512 ------- 1 6.0 0.1 7 72
- 0.178488 20 0 cbr 512 ------- 1 6.0 0.1 7 72
r 0.179192 18 20 cbr 512 ------- 1 13.1 9.2 7 76
+ 0.179192 20 9 cbr 512 ------- 1 13.1 9.2 7 76
- 0.179192 20 9 cbr 512 ------- 1 13.1 9.2 7 76
r 0.179392 20 18 cbr 512 ------- 1 8.1 18.1 6 64
- 0.179632 9 20 cbr 512 ------- 1 6.0 0.1 8 82
+ 0.18 3 0 cbr 512 ------- 1 3.0 0.0 10 100
- 0.18 3 0 cbr 512 ------- 1 3.0 0.0 10 100
+ 0.18 5 18 cbr 512 ------- 1 5.0 18.0 10 101
- 0.18 5 18 cbr 512 ------- 1 5.0 18.0 10 101
+ 0.18 6 9 cbr 512 ------- 1 6.0 0.1 10 102
- 0.18 6 9 cbr 512 ------- 1 6.0 0.1 10 102
+ 0.18 7 18 cbr 512 ------- 1 7.0 9.0 10 103
- 0.18 7 18 cbr 512 ------- 1 7.0 9.0 10 103
+ 0.18 8 9 cbr 512 ------- 1 8.1 18.1 10 104
- 0.18 8 9 cbr 512 ------- 1 8.1 18.1 10 104
+ 0.18 10 9 cbr 512 ------- 1 10.0 9.1 10 105
- 0.18 10 9 cbr 512 ------- 1 10.0 9.1 10 105
+ 0.18 13 18 cbr 512 ------- 1 13.1 9.2 10 106
- 0.18 13 18 cbr 512 ------- 1 13.1 9.2 10 106
+ 0.18 14 9 cbr 512 ------- 1 14.0 18.2 10 107
- 0.18 14 9 cbr 512 ------- 1 14.0 18.2 10 107
+ 0.18 16 18 cbr 512 ------- 1 16.0 9.3 10 108
- 0.18 16 18 cbr 512 ------- 1 16.0 9.3 10 108
+ 0.18 17 9 cbr 512 ------- 1 17.0 18.3 10 109
- 0.18 17 9 cbr 512 ------- 1 17.0 18.3 10 109
- 0.180144 18 20 cbr 512 ------- 1 13.1 9.2 8 86
r 0.180288 20 9 cbr 512 ------- 1 16.0 9.3 6 68
r 0.180536 9 20 cbr 512 ------- 1 8.1 18.1 7 74
+ 0.180536 20 18 cbr 512 ------- 1 8.1 18.1 7 74
- 0.180536 20 18 cbr 512 ------- 1 8.1 18.1 7 74
r 0.18124 18 20 cbr 512 ------- 1 16.0 9.3 7 78
+ 0.18124 20 9 cbr 512 ------- 1 16.0 9.3 7 78
- 0.18124 20 9 cbr 512 ------- 1 16.0 9.3 7 78